 Gaussian 09, Revision D.01,
 Gaussian 09:  EM64W-G09RevD.01 13-Apr-2013

 ----------------------------------------------------
 # td=(50-50,nstates=3) b3lyp/6-31g geom=connectivity
 ----------------------------------------------------

 -------------------
 Title Card Required
 -------------------
 Symbolic Z-matrix:
 Charge =  0 Multiplicity = 1

                         Standard orientation:
 ---------------------------------------------------------------------
 Center     Atomic      Atomic             Coordinates (Angstroms)
 Number     Number       Type             X           Y           Z
 ---------------------------------------------------------------------
      1          6           0       -4.328090    0.877605   -1.633154
      2          6           0       -3.122778    1.503528   -1.962027
      3          6           0       -1.899535    0.878572   -1.703599
      4          6           0       -1.855866   -0.395597   -1.093254
      5          6           0       -3.092213   -1.017865   -0.795679
      6          6           0       -4.324049   -0.402697   -1.047618
      7          1           0       -5.272994    1.369835   -1.846876
      8          1           0       -3.134623    2.477690   -2.442519
      9          1           0       -3.079472   -2.009080   -0.348365
     10          6           0       -6.320409   -0.035795    3.065971
     11          6           0       -5.586466   -0.656779    1.866469
     12          1           0       -5.761247   -0.184638    3.997093
     13          1           0       -6.457127    1.044269    2.927463
     14          1           0       -7.314555   -0.482063    3.197472
     15          6           0       -6.347950   -0.474268    0.541836
     16          1           0       -4.586468   -0.212343    1.775864
     17          1           0       -5.431211   -1.731265    2.046560
     18          6           0       -5.631821   -1.086705   -0.688948
     19          1           0       -7.343872   -0.933032    0.632139
     20          1           0       -6.514592    0.598364    0.363783
     21          1           0       -6.314732   -1.035312   -1.548459
     22          1           0       -5.447910   -2.152867   -0.499886
     23          6           0       -0.618039   -1.125793   -0.807728
     24          1           0       -0.719947   -2.210168   -0.839523
     25          6           0        0.961283    0.749125   -0.217136
     26          6           0        2.213633    1.142817    0.101516
     27          6           0        2.992035   -1.161066   -0.000454
     28          6           0        1.742369   -1.573356   -0.298009
     29          6           0        0.622534   -0.649427   -0.475104
     30          8           0        3.263183    0.209886    0.179778
     31          6           0        1.562692    3.572807    0.331770
     32          6           0        2.711638    2.545022    0.416967
     33          1           0        1.123283    3.602942   -0.671604
     34          1           0        0.767631    3.350604    1.052180
     35          1           0        1.951852    4.571414    0.558046
     36          6           0        3.307793    2.565964    1.851242
     37          6           0        3.816461    2.932372   -0.604597
     38          1           0        4.130475    1.851523    1.943150
     39          1           0        3.689613    3.567649    2.081162
     40          1           0        2.543819    2.310593    2.594459
     41          1           0        4.203288    3.931813   -0.373482
     42          1           0        4.646746    2.221701   -0.570668
     43          1           0        3.415433    2.946291   -1.624514
     44          6           0        3.954889   -3.494095   -0.030823
     45          6           0        4.251593   -1.993361    0.178780
     46          1           0        4.878140   -4.068716    0.100715
     47          1           0        3.221990   -3.864774    0.694602
     48          1           0        3.576367   -3.692081   -1.039875
     49          6           0        4.806198   -1.779909    1.614145
     50          6           0        5.316033   -1.535648   -0.856013
     51          1           0        5.727614   -2.358906    1.747385
     52          1           0        5.029994   -0.724656    1.793346
     53          1           0        4.080269   -2.111268    2.365469
     54          1           0        4.957848   -1.695195   -1.879447
     55          1           0        5.547857   -0.474060   -0.734034
     56          1           0        6.238859   -2.111827   -0.720392
     57          1           0        1.554175   -2.630723   -0.433282
     58          1           0        0.177150    1.489973   -0.240675
     59          1           0       -0.980745    1.356515   -2.022839
 ---------------------------------------------------------------------

 SCF Done:  E(RB3LYP) =  -1010.01298501     A.U. after   17 cycles

 Excitation energies and oscillator strengths:

 Excited State   1:      Triplet-A      2.0801 eV  596.06 nm  f=0.0000  <S**2>=2.000
      93 -> 94         0.69053
      93 -> 97         0.11040
      93 <- 94         0.12127
 This state for optimization and/or second-order correction.
 Total Energy, E(TD-HF/TD-KS) =  -1009.93654439
 Copying the excited state density for this state as the 1-particle RhoCI density.

 Excited State   2:      Triplet-A      3.2174 eV  385.36 nm  f=0.0000  <S**2>=2.000
      90 -> 94        -0.16072
      91 -> 95        -0.11566
      93 -> 95         0.66109

 Excited State   3:      Triplet-A      3.6910 eV  335.91 nm  f=0.0000  <S**2>=2.000
      90 -> 95        -0.12938
      91 -> 94        -0.36081
      91 -> 97         0.13549
      92 -> 94        -0.16427
      92 -> 96         0.32757
      93 -> 97         0.42400

 Excited State   4:      Singlet-A      3.8412 eV  322.77 nm  f=0.8818  <S**2>=0.000
      93 -> 94         0.69853

 Excited State   5:      Singlet-A      4.0295 eV  307.69 nm  f=0.0030  <S**2>=0.000
      93 -> 95         0.70290

 Excited State   6:      Singlet-A      4.3205 eV  286.97 nm  f=0.0176  <S**2>=0.000
      92 -> 94         0.24703
      93 -> 96         0.65454

 The electronic state is 1-A.
 Alpha  occ. eigenvalues --  -19.19331 -10.25151 -10.25010 -10.21119 -10.21084
 Alpha  occ. eigenvalues --  -10.19708 -10.18642 -10.18354 -10.18303 -10.18186
 Alpha  occ. eigenvalues --  -10.17660 -10.17476 -10.17437 -10.17343 -10.17204
 Alpha  occ. eigenvalues --  -10.17165 -10.17123 -10.17046 -10.17034 -10.17007
 Alpha  occ. eigenvalues --  -10.17004 -10.16997 -10.16720 -10.16637 -10.16180
 Alpha  occ. eigenvalues --   -1.08266  -0.85189  -0.84478  -0.82892  -0.81497
 Alpha  occ. eigenvalues --   -0.79373  -0.75923  -0.75360  -0.74708  -0.70686
 Alpha  occ. eigenvalues --   -0.69813  -0.69586  -0.68817  -0.68698  -0.68491
 Alpha  occ. eigenvalues --   -0.64516  -0.63448  -0.62202  -0.59030  -0.58662
 Alpha  occ. eigenvalues --   -0.56757  -0.55020  -0.53161  -0.51041  -0.50551
 Alpha  occ. eigenvalues --   -0.48966  -0.46759  -0.46611  -0.46296  -0.45401
 Alpha  occ. eigenvalues --   -0.45297  -0.44154  -0.44015  -0.43322  -0.42729
 Alpha  occ. eigenvalues --   -0.42652  -0.42095  -0.41882  -0.41003  -0.40211
 Alpha  occ. eigenvalues --   -0.39576  -0.39137  -0.38973  -0.38835  -0.37814
 Alpha  occ. eigenvalues --   -0.37517  -0.36949  -0.36931  -0.36676  -0.36646
 Alpha  occ. eigenvalues --   -0.35658  -0.35321  -0.34914  -0.34072  -0.33867
 Alpha  occ. eigenvalues --   -0.33165  -0.33052  -0.32806  -0.32692  -0.32187
 Alpha  occ. eigenvalues --   -0.31917  -0.31638  -0.31381  -0.30987  -0.26198
 Alpha  occ. eigenvalues --   -0.24858  -0.23230  -0.17202
 Alpha virt. eigenvalues --   -0.02850   0.00663   0.01292   0.03812   0.06920
 Alpha virt. eigenvalues --    0.09184   0.09873   0.11089   0.11138   0.11638
 Alpha virt. eigenvalues --    0.11971   0.12568   0.12853   0.13041   0.13216

 Mulliken charges:
               1
     1  C   -0.155289
     2  C   -0.134587
     3  C   -0.159380
     4  C    0.106401
     5  C   -0.204169
     6  C    0.116671
     7  H    0.116308
     8  H    0.117639
     9  H    0.115633
    10  C   -0.405814
    11  C   -0.235814
    12  H    0.129475
    13  H    0.130987
    14  H    0.128132
    15  C   -0.226428
    16  H    0.140903
    17  H    0.117928
    18  C   -0.325388
    19  H    0.119002
    20  H    0.124533
    21  H    0.132885
    22  H    0.127380
    23  C   -0.292592
    24  H    0.107159
    25  C   -0.177813
    26  C    0.339221
    27  C    0.339358
    28  C   -0.194042
    29  C    0.144758
    30  O   -0.609299
    31  C   -0.400223
    32  C   -0.037933
    33  H    0.137901
    34  H    0.141975
    35  H    0.133405
    36  C   -0.394722
    37  C   -0.393618
    38  H    0.155024
    39  H    0.129745
    40  H    0.135683
    41  H    0.129695
    42  H    0.155256
    43  H    0.134613
    44  C   -0.400150
    45  C   -0.037243
    46  H    0.133865
    47  H    0.137998
    48  H    0.138853
    49  C   -0.394516
    50  C   -0.393906
    51  H    0.129607
    52  H    0.155229
    53  H    0.134848
    54  H    0.135275
    55  H    0.155356
    56  H    0.129382
    57  H    0.137986
    58  H    0.149615
    59  H    0.127245
 Sum of Mulliken charges =   0.00000

 Dipole moment (field-independent basis, Debye):
    X=              1.4715    Y=              0.1165    Z=              0.5672  Tot=              1.5813
 Quadrupole moment (field-independent basis, Debye-Ang):
   XX=           -146.2371   YY=           -144.3798   ZZ=           -158.7371
   XY=             -1.3823   XZ=              0.6969   YZ=             -1.6448

 Normal termination of Gaussian 09 at Wed Mar 05 10:56:04 2025.
