 Gaussian 09, Revision D.01,
 Gaussian 09:  EM64W-G09RevD.01 13-Apr-2013

 -----------------------------------
 # opt b3lyp/6-31g geom=connectivity
 -----------------------------------

 -------------------
 Title Card Required
 -------------------
 Symbolic Z-matrix:
 Charge =  0 Multiplicity = 1

 SCF Done:  E(RB3LYP) =  -529.938520384     A.U. after   18 cycles
 SCF Done:  E(RB3LYP) =  -529.974620814     A.U. after   16 cycles
 SCF Done:  E(RB3LYP) =  -529.986664134     A.U. after   17 cycles
 SCF Done:  E(RB3LYP) =  -529.988280419     A.U. after   15 cycles
 SCF Done:  E(RB3LYP) =  -529.988848743     A.U. after   14 cycles
 SCF Done:  E(RB3LYP) =  -529.989353903     A.U. after   15 cycles
 SCF Done:  E(RB3LYP) =  -529.989568781     A.U. after   15 cycles
 SCF Done:  E(RB3LYP) =  -529.989622751     A.U. after   14 cycles
 SCF Done:  E(RB3LYP) =  -529.989636394     A.U. after   12 cycles
 SCF Done:  E(RB3LYP) =  -529.989645265     A.U. after   12 cycles
 SCF Done:  E(RB3LYP) =  -529.989649984     A.U. after   12 cycles
 SCF Done:  E(RB3LYP) =  -529.989650626     A.U. after   10 cycles
 SCF Done:  E(RB3LYP) =  -529.989650806     A.U. after    9 cycles
 Optimization completed.
    -- Stationary point found.

                         Standard orientation:
 ---------------------------------------------------------------------
 Center     Atomic      Atomic             Coordinates (Angstroms)
 Number     Number       Type             X           Y           Z
 ---------------------------------------------------------------------
      1          6           0        0.726856    1.835814   -0.000016
      2          6           0        1.905210    1.137597    0.000034
      3          6           0        1.966420   -0.312814   -0.000185
      4          6           0        0.802347   -1.047942   -0.000166
      5          6           0       -0.428400   -0.341434    0.000015
      6          6           0       -0.491144    1.089576    0.000004
      7          1           0        0.692398    2.918133    0.000033
      8          1           0        2.844916    1.681314    0.000056
      9          1           0        0.804155   -2.131512   -0.000194
     10          6           0        3.320320   -0.979248    0.000113
     11          1           0        3.230924   -2.068948   -0.000384
     12          1           0        3.905162   -0.687773   -0.881733
     13          1           0        3.904374   -0.688571    0.882777
     14          7           0       -1.676285   -0.834536   -0.000076
     15          7           0       -1.746491    1.554870    0.000026
     16          8           0       -2.585761    0.427831    0.000025
     17          8           0       -2.193258   -1.972115    0.000100
 ---------------------------------------------------------------------

 The electronic state is 1-A.
 Alpha  occ. eigenvalues --  -19.26581 -19.19450 -14.53268 -14.41780 -10.27454
 Alpha  occ. eigenvalues --  -10.26428 -10.23755 -10.22946 -10.22905 -10.22721
 Alpha  occ. eigenvalues --  -10.20444  -1.19928  -1.12002  -0.93021  -0.88768
 Alpha  occ. eigenvalues --   -0.85642  -0.79045  -0.74653  -0.68218  -0.64535
 Alpha  occ. eigenvalues --   -0.62765  -0.55658  -0.53719  -0.52511  -0.51225
 Alpha  occ. eigenvalues --   -0.47954  -0.47703  -0.44747  -0.43975  -0.42260
 Alpha  occ. eigenvalues --   -0.40898  -0.40413  -0.38880  -0.38378  -0.36531
 Alpha  occ. eigenvalues --   -0.30489  -0.29743  -0.29117  -0.22805
 Alpha virt. eigenvalues --   -0.10436  -0.02472  -0.01320  -0.00634   0.07715
 Alpha virt. eigenvalues --    0.08344   0.10452   0.11589   0.12195   0.15402
 Alpha virt. eigenvalues --    0.15745   0.17161   0.19130   0.20409   0.24752

 Mulliken charges:
               1
     1  C   -0.048852
     2  C   -0.158381
     3  C    0.090424
     4  C   -0.070171
     5  C    0.421982
     6  C    0.096033
     7  H    0.168649
     8  H    0.144187
     9  H    0.173200
    10  C   -0.487847
    11  H    0.158215
    12  H    0.164623
    13  H    0.164653
    14  N   -0.109346
    15  N   -0.166615
    16  O   -0.202116
    17  O   -0.338639
 Sum of Mulliken charges =   0.00000

 Dipole moment (field-independent basis, Debye):
    X=              6.1168    Y=              0.5494    Z=              0.0001  Tot=              6.1415
 Quadrupole moment (field-independent basis, Debye-Ang):
   XX=            -66.3490   YY=            -63.8616   ZZ=            -63.6058
   XY=             -0.9066   XZ=              0.0012   YZ=              0.0003

 Normal termination of Gaussian 09 at Tue Feb 25 14:47:07 2025.
