 Gaussian 09, Revision D.01,
 Gaussian 09:  EM64W-G09RevD.01 13-Apr-2013

 -----------------------------------
 # opt b3lyp/6-31g geom=connectivity
 -----------------------------------

 -------------------
 Title Card Required
 -------------------
 Symbolic Z-matrix:
 Charge =  0 Multiplicity = 2

 SCF Done:  E(UB3LYP) =  -949.025337357     A.U. after   23 cycles
 SCF Done:  E(UB3LYP) =  -949.165658289     A.U. after   22 cycles
 SCF Done:  E(UB3LYP) =  -949.216236481     A.U. after   22 cycles
 SCF Done:  E(UB3LYP) =  -949.236934627     A.U. after   20 cycles
 SCF Done:  E(UB3LYP) =  -949.258527903     A.U. after   18 cycles
 SCF Done:  E(UB3LYP) =  -949.266965503     A.U. after   21 cycles
 SCF Done:  E(UB3LYP) =  -949.274242358     A.U. after   21 cycles
 SCF Done:  E(UB3LYP) =  -949.276320189     A.U. after   17 cycles
 SCF Done:  E(UB3LYP) =  -949.277704626     A.U. after   17 cycles
 SCF Done:  E(UB3LYP) =  -949.278630682     A.U. after   20 cycles
 SCF Done:  E(UB3LYP) =  -949.280011599     A.U. after   12 cycles
 SCF Done:  E(UB3LYP) =  -949.280011218     A.U. after   12 cycles
 SCF Done:  E(UB3LYP) =  -949.280011708     A.U. after    9 cycles
 SCF Done:  E(UB3LYP) =  -949.280011766     A.U. after    8 cycles
 SCF Done:  E(UB3LYP) =  -949.280011827     A.U. after    8 cycles
 SCF Done:  E(UB3LYP) =  -949.280011895     A.U. after    8 cycles
 SCF Done:  E(UB3LYP) =  -949.280012034     A.U. after    9 cycles
 SCF Done:  E(UB3LYP) =  -949.280012188     A.U. after    8 cycles
 SCF Done:  E(UB3LYP) =  -949.280012307     A.U. after    8 cycles
 SCF Done:  E(UB3LYP) =  -949.280012370     A.U. after    7 cycles
 Optimization completed.
    -- Stationary point found.

                         Standard orientation:
 ---------------------------------------------------------------------
 Center     Atomic      Atomic             Coordinates (Angstroms)
 Number     Number       Type             X           Y           Z
 ---------------------------------------------------------------------
      1          6           0       -2.844663    0.144794   -0.078015
      2          6           0       -4.014298    0.920078    0.289727
      3          6           0       -5.231100    0.285205    0.378070
      4          6           0       -4.296202   -1.832214   -0.217924
      5          6           0       -3.066325   -1.256042   -0.318911
      6          6           0       -1.505731    0.655278   -0.217987
      7          6           0        0.027571    2.404180   -0.168649
      8          6           0        1.073940    1.545999   -0.521651
      9          6           0        0.737514    0.191898   -0.710684
     10          1           0       -6.128551    0.826038    0.650458
     11          1           0       -4.473152   -2.884142   -0.400297
     12          1           0       -2.211592   -1.860222   -0.589862
     13          1           0        0.204770    3.463597   -0.004529
     14          1           0        2.090980    1.896396   -0.643777
     15          7           0       -5.407528   -1.075962    0.139422
     16          7           0       -1.240093    1.988039   -0.015716
     17          7           0       -0.518341   -0.251337   -0.559862
     18          6           0        1.785440   -0.843273   -1.083843
     19          7           0        2.867049   -0.962265   -0.103006
     20          7           0        3.998975   -0.270013   -0.382277
     21          6           0        4.960512   -0.145249    0.480538
     22          6           0        6.190090    0.631939    0.066717
     23          6           0        7.426375   -0.154126    0.177460
     24          7           0        8.400959   -0.796756    0.284365
     25          6           0       -6.748747   -1.661359    0.154189
     26          1           0       -7.344826   -1.202506    0.947814
     27          1           0       -7.265827   -1.515245   -0.803495
     28          1           0       -6.676402   -2.733080    0.353340
     29          6           0       -3.991616    2.401205    0.592872
     30          1           0       -3.313694    2.630024    1.419404
     31          1           0       -3.618739    2.977495   -0.257675
     32          1           0       -4.997988    2.751291    0.849263
     33          6           0        2.598816   -1.510610    1.223177
     34          1           0        1.618303   -1.988047    1.209418
     35          1           0        3.353980   -2.259663    1.494068
     36          1           0        2.595171   -0.727257    1.996629
     37          1           0        6.305356    1.537912    0.680790
     38          1           0        6.054471    0.958261   -0.970635
     39          1           0        4.946630   -0.568217    1.483959
     40          1           0        2.262793   -0.582937   -2.032416
     41          1           0        1.281724   -1.807864   -1.193463
 ---------------------------------------------------------------------

 The electronic state is 2-A.
 Alpha  occ. eigenvalues --  -14.39929 -14.38274 -14.37549 -14.33780 -14.32435
 Alpha  occ. eigenvalues --  -14.32164 -10.24495 -10.24163 -10.23181 -10.23001
 Alpha  occ. eigenvalues --  -10.22961 -10.22679 -10.22526 -10.22308 -10.22173
 Alpha  occ. eigenvalues --  -10.22022 -10.21962 -10.20468 -10.19254 -10.18471
 Alpha  occ. eigenvalues --  -10.18421 -10.16569  -1.02533  -0.99317  -0.97814
 Alpha  occ. eigenvalues --   -0.91667  -0.88653  -0.86202  -0.83817  -0.79449
 Alpha  occ. eigenvalues --   -0.78629  -0.77563  -0.74360  -0.73364  -0.70609
 Alpha  occ. eigenvalues --   -0.68482  -0.66712  -0.62818  -0.62130  -0.60202
 Alpha  occ. eigenvalues --   -0.56708  -0.54243  -0.53626  -0.52441  -0.51070
 Alpha  occ. eigenvalues --   -0.50764  -0.49161  -0.48400  -0.48081  -0.47897
 Alpha  occ. eigenvalues --   -0.46290  -0.45109  -0.44792  -0.43884  -0.42968
 Alpha  occ. eigenvalues --   -0.42789  -0.42046  -0.41941  -0.41049  -0.40525
 Alpha  occ. eigenvalues --   -0.39628  -0.39288  -0.38548  -0.37779  -0.36855
 Alpha  occ. eigenvalues --   -0.35847  -0.35175  -0.34455  -0.32514  -0.32050
 Alpha  occ. eigenvalues --   -0.31340  -0.30200  -0.28234  -0.27314  -0.27083
 Alpha  occ. eigenvalues --   -0.25124  -0.22736  -0.20981  -0.12814
 Alpha virt. eigenvalues --   -0.02631  -0.00430  -0.00190   0.00366   0.04160
 Alpha virt. eigenvalues --    0.04875   0.07495   0.09464   0.09544   0.10875
 Alpha virt. eigenvalues --    0.10991   0.11175   0.12014   0.12352   0.13166

  Beta  occ. eigenvalues --  -14.39400 -14.38279 -14.37548 -14.33780 -14.32205
  Beta  occ. eigenvalues --  -14.31916 -10.24490 -10.24194 -10.23277 -10.22961
  Beta  occ. eigenvalues --  -10.22832 -10.22526 -10.22466 -10.22401 -10.22174
  Beta  occ. eigenvalues --  -10.22022 -10.21957 -10.20519 -10.18802 -10.18499
  Beta  occ. eigenvalues --  -10.18174 -10.16569  -1.02537  -0.98388  -0.97454
  Beta  occ. eigenvalues --   -0.91667  -0.88327  -0.86109  -0.83322  -0.79185
  Beta  occ. eigenvalues --   -0.78297  -0.77501  -0.74223  -0.73092  -0.70269
  Beta  occ. eigenvalues --   -0.68447  -0.66256  -0.62758  -0.61904  -0.59914
  Beta  occ. eigenvalues --   -0.56686  -0.54171  -0.53483  -0.52280  -0.50939
  Beta  occ. eigenvalues --   -0.50711  -0.49063  -0.47917  -0.47812  -0.47411
  Beta  occ. eigenvalues --   -0.46237  -0.45074  -0.44647  -0.43746  -0.42850
  Beta  occ. eigenvalues --   -0.42540  -0.41859  -0.41680  -0.40978  -0.40389
  Beta  occ. eigenvalues --   -0.39490  -0.39097  -0.38396  -0.36791  -0.36623
  Beta  occ. eigenvalues --   -0.35844  -0.35049  -0.34454  -0.32511  -0.32050
  Beta  occ. eigenvalues --   -0.29740  -0.29153  -0.27877  -0.27296  -0.25763
  Beta  occ. eigenvalues --   -0.23539  -0.22472  -0.20908
  Beta virt. eigenvalues --   -0.06512  -0.02317   0.00126   0.00374   0.01654
  Beta virt. eigenvalues --    0.04162   0.04885   0.07604   0.09470   0.10316
  Beta virt. eigenvalues --    0.10981   0.11128   0.11476   0.12130   0.12428

 Mulliken charges and spin densities:
               1          2
     1  C    0.075482   0.337908
     2  C    0.073240  -0.059954
     3  C    0.054833   0.167219
     4  C    0.112348   0.131637
     5  C   -0.176704  -0.037029
     6  C    0.195755  -0.010537
     7  C    0.033446  -0.076555
     8  C   -0.146833   0.199844
     9  C    0.234082  -0.077765
    10  H    0.145469  -0.008727
    11  H    0.148908  -0.007102
    12  H    0.166341  -0.000572
    13  H    0.136981   0.002594
    14  H    0.144964  -0.008963
    15  N   -0.577924   0.200345
    16  N   -0.407935   0.122341
    17  N   -0.449929   0.114999
    18  C   -0.131876   0.004434
    19  N   -0.375199  -0.001180
    20  N   -0.179417   0.000330
    21  C    0.036090  -0.000655
    22  C   -0.346069   0.000053
    23  C    0.125545  -0.000014
    24  N   -0.277227   0.000009
    25  C   -0.248237  -0.021384
    26  H    0.166609   0.006240
    27  H    0.170311   0.018662
    28  H    0.164479   0.003250
    29  C   -0.426204   0.000676
    30  H    0.166014   0.001026
    31  H    0.168620   0.000796
    32  H    0.110565  -0.000470
    33  C   -0.248626  -0.000011
    34  H    0.171646   0.000209
    35  H    0.162775   0.000038
    36  H    0.153532   0.000074
    37  H    0.190820  -0.000032
    38  H    0.208396  -0.000002
    39  H    0.136167   0.000027
    40  H    0.178310  -0.001261
    41  H    0.160450  -0.000500
 Sum of Mulliken charges =   0.00000   1.00000

 Dipole moment (field-independent basis, Debye):
    X=             -8.7000    Y=             -0.4467    Z=              1.2174  Tot=              8.7961
 Quadrupole moment (field-independent basis, Debye-Ang):
   XX=           -147.3948   YY=           -122.2676   ZZ=           -129.0777
   XY=             27.2020   XZ=              0.1542   YZ=             -0.4631

 Normal termination of Gaussian 09 at Thu Mar 06 07:56:21 2025.
