 Gaussian 09, Revision D.01,
 Gaussian 09:  EM64W-G09RevD.01 13-Apr-2013

 ----------------------------------------------------
 # td=(50-50,nstates=3) b3lyp/6-31g geom=connectivity
 ----------------------------------------------------

 -------------------
 Title Card Required
 -------------------
 Symbolic Z-matrix:
 Charge =  0 Multiplicity = 1

                         Standard orientation:
 ---------------------------------------------------------------------
 Center     Atomic      Atomic             Coordinates (Angstroms)
 Number     Number       Type             X           Y           Z
 ---------------------------------------------------------------------
      1          6           0       -1.659813   -1.952173   -0.223715
      2          1           0       -1.466908   -3.023742   -0.246740
      3          6           0       -0.628066    0.333688   -0.110486
      4          6           0        0.485384    1.089558   -0.019749
      5          6           0        1.882197   -0.905230   -0.029270
      6          6           0        0.782806   -1.680476   -0.125083
      7          6           0       -0.574657   -1.129796   -0.157402
      8          1           0       -1.601133    0.797630   -0.184883
      9          8           0        1.763937    0.495763    0.036879
     10          6           0       -0.804667    3.257516   -0.025623
     11          6           0        0.593774    2.605817    0.031986
     12          1           0       -1.331789    2.996878   -0.949844
     13          1           0       -1.425943    2.948613    0.822124
     14          1           0       -0.700106    4.347609    0.010093
     15          6           0        1.296325    3.023787    1.352863
     16          6           0        1.436399    3.100685   -1.175588
     17          1           0        2.290954    2.575031    1.425137
     18          1           0        1.402318    4.114518    1.390981
     19          1           0        0.709958    2.704760    2.222243
     20          1           0        1.541689    4.191427   -1.135878
     21          1           0        2.434841    2.654596   -1.164113
     22          1           0        0.951394    2.836454   -2.122384
     23          6           0        3.472560   -2.866986   -0.049972
     24          6           0        3.341666   -1.330704    0.028627
     25          1           0        4.531235   -3.145472   -0.006226
     26          1           0        2.961007   -3.357121    0.786035
     27          1           0        3.059834   -3.257819   -0.986827
     28          6           0        3.964424   -0.834585    1.362516
     29          6           0        4.107232   -0.693060   -1.162965
     30          1           0        5.025219   -1.108814    1.404462
     31          1           0        3.882167    0.252272    1.450275
     32          1           0        3.456992   -1.289102    2.221191
     33          1           0        3.701985   -1.044794   -2.118707
     34          1           0        4.029536    0.397314   -1.136908
     35          1           0        5.167570   -0.968402   -1.116454
     36          1           0        0.897504   -2.756043   -0.172282
     37          6           0       -4.965597   -0.323240    0.850468
     38          6           0       -4.875841   -0.040754   -0.678045
     39          6           0       -3.119445   -1.579644   -0.208950
     40          6           0       -3.711262   -1.186997    1.179658
     41          1           0       -4.954964    0.609104    1.423796
     42          1           0       -5.897351   -0.844481    1.093347
     43          1           0       -5.090201    1.002428   -0.931286
     44          1           0       -5.606988   -0.673492   -1.216066
     45          1           0       -3.260484   -0.448599   -1.995597
     46          1           0       -3.687400   -2.464673   -0.564592
     47          1           0       -3.947844   -2.072542    1.777611
     48          1           0       -2.967003   -0.600415    1.726490
     49          7           0       -3.479728   -0.380523   -1.005092
 ---------------------------------------------------------------------

 SCF Done:  E(RB3LYP) =  -833.110369168     A.U. after   16 cycles

 Excitation energies and oscillator strengths:

 Excited State   1:      Triplet-A      2.3979 eV  517.05 nm  f=0.0000  <S**2>=2.000
      74 -> 78        -0.12834
      76 -> 77         0.70064
      76 <- 77         0.13658
 This state for optimization and/or second-order correction.
 Total Energy, E(TD-HF/TD-KS) =  -833.022246680
 Copying the excited state density for this state as the 1-particle RhoCI density.

 Excited State   2:      Triplet-A      3.3460 eV  370.54 nm  f=0.0000  <S**2>=2.000
      74 -> 77        -0.19955
      76 -> 78         0.66352

 Excited State   3:      Singlet-A      4.2870 eV  289.21 nm  f=0.0011  <S**2>=0.000
      76 -> 78         0.70143

 Excited State   4:      Triplet-A      4.5125 eV  274.76 nm  f=0.0000  <S**2>=2.000
      75 -> 77         0.69320

 Excited State   5:      Singlet-A      4.5656 eV  271.56 nm  f=0.0859  <S**2>=0.000
      75 -> 77         0.62620
      76 -> 77         0.31504

 Excited State   6:      Singlet-A      4.7818 eV  259.29 nm  f=0.5115  <S**2>=0.000
      74 -> 78         0.12246
      75 -> 77        -0.32147
      76 -> 77         0.61367

 The electronic state is 1-A.
 Alpha  occ. eigenvalues --  -19.18337 -14.30332 -10.24212 -10.23933 -10.20574
 Alpha  occ. eigenvalues --  -10.20412 -10.20264 -10.19821 -10.18632 -10.17521
 Alpha  occ. eigenvalues --  -10.17260 -10.17010 -10.16762 -10.16562 -10.16552
 Alpha  occ. eigenvalues --  -10.16546 -10.16531 -10.16375 -10.16354 -10.15638
 Alpha  occ. eigenvalues --   -1.07212  -0.90751  -0.83714  -0.81994  -0.80667
 Alpha  occ. eigenvalues --   -0.75084  -0.74502  -0.73919  -0.69047  -0.68880
 Alpha  occ. eigenvalues --   -0.68317  -0.68083  -0.67550  -0.63471  -0.61404
 Alpha  occ. eigenvalues --   -0.58404  -0.57036  -0.54257  -0.53259  -0.50291
 Alpha  occ. eigenvalues --   -0.50143  -0.48689  -0.46321  -0.45961  -0.45163
 Alpha  occ. eigenvalues --   -0.44644  -0.43601  -0.43528  -0.42734  -0.41999
 Alpha  occ. eigenvalues --   -0.41928  -0.39632  -0.38739  -0.38576  -0.38515
 Alpha  occ. eigenvalues --   -0.38248  -0.37260  -0.37024  -0.36575  -0.36419
 Alpha  occ. eigenvalues --   -0.36140  -0.36023  -0.35673  -0.34372  -0.34032
 Alpha  occ. eigenvalues --   -0.33586  -0.33263  -0.32411  -0.32236  -0.31594
 Alpha  occ. eigenvalues --   -0.31259  -0.30906  -0.30225  -0.25277  -0.20259
 Alpha  occ. eigenvalues --   -0.17232
 Alpha virt. eigenvalues --   -0.00266   0.01740   0.07417   0.08561   0.09815
 Alpha virt. eigenvalues --    0.11147   0.11781   0.12255   0.12571   0.13461
 Alpha virt. eigenvalues --    0.13602   0.13725   0.14150   0.14314   0.14938

 Mulliken charges:
               1
     1  C   -0.229968
     2  H    0.097377
     3  C   -0.176876
     4  C    0.333525
     5  C    0.342196
     6  C   -0.194233
     7  C    0.127810
     8  H    0.181265
     9  O   -0.613241
    10  C   -0.396557
    11  C   -0.034903
    12  H    0.141636
    13  H    0.138289
    14  H    0.127424
    15  C   -0.393553
    16  C   -0.394051
    17  H    0.153375
    18  H    0.126479
    19  H    0.133063
    20  H    0.126658
    21  H    0.153386
    22  H    0.132818
    23  C   -0.399088
    24  C   -0.035640
    25  H    0.131760
    26  H    0.137124
    27  H    0.136856
    28  C   -0.393802
    29  C   -0.394203
    30  H    0.127148
    31  H    0.155598
    32  H    0.133613
    33  H    0.133066
    34  H    0.155906
    35  H    0.127150
    36  H    0.132424
    37  C   -0.266681
    38  C   -0.093209
    39  C   -0.002545
    40  C   -0.228743
    41  H    0.136246
    42  H    0.127356
    43  H    0.132174
    44  H    0.107702
    45  H    0.274574
    46  H    0.094275
    47  H    0.122382
    48  H    0.144355
    49  N   -0.577715
 Sum of Mulliken charges =   0.00000

 Dipole moment (field-independent basis, Debye):
    X=             -0.1611    Y=             -0.1528    Z=             -0.3825  Tot=              0.4422
 Quadrupole moment (field-independent basis, Debye-Ang):
   XX=           -116.7315   YY=           -119.7739   ZZ=           -124.5807
   XY=             -1.6274   XZ=              1.5650   YZ=              0.4510

 Normal termination of Gaussian 09 at Wed Mar 05 11:27:52 2025.
