 Gaussian 09, Revision D.01,
 Gaussian 09:  EM64W-G09RevD.01 13-Apr-2013

 ----------------------------------------------------
 # td=(50-50,nstates=3) b3lyp/6-31g geom=connectivity
 ----------------------------------------------------

 -------------------
 Title Card Required
 -------------------
 Symbolic Z-matrix:
 Charge =  0 Multiplicity = 1

                         Standard orientation:
 ---------------------------------------------------------------------
 Center     Atomic      Atomic             Coordinates (Angstroms)
 Number     Number       Type             X           Y           Z
 ---------------------------------------------------------------------
      1          6           0       -4.704342   -0.639848    2.066134
      2          6           0       -3.713920   -0.720472    1.080784
      3          6           0       -4.050940   -0.554189   -0.271752
      4          6           0       -5.398353   -0.307359   -0.588962
      5          6           0       -6.026504   -0.393125    1.702573
      6          1           0       -4.463421   -0.766495    3.114299
      7          1           0       -2.677037   -0.909753    1.337111
      8          1           0       -5.667956   -0.176829   -1.629717
      9          1           0       -6.835067   -0.318332    2.415813
     10          7           0       -6.346142   -0.231889    0.386061
     11          6           0       -7.748134    0.048862   -0.011427
     12          1           0       -7.818095    1.063232   -0.410368
     13          1           0       -8.053741   -0.665207   -0.778030
     14          1           0       -8.398229   -0.049434    0.857466
     15          6           0       -3.115858   -0.607681   -1.433283
     16          6           0       -1.802099   -0.849155   -1.121585
     17          6           0       -0.580053   -1.075584   -0.827714
     18          8           0       -3.659393   -0.418223   -2.598512
     19          6           0        1.937225   -1.594525   -0.262883
     20          6           0        2.442368   -2.971672   -0.247404
     21          6           0        3.737583   -3.267017    0.019968
     22          6           0        4.247406   -0.946475    0.299407
     23          6           0        2.964828   -0.571168    0.038542
     24          1           0        1.749548   -3.773671   -0.472261
     25          1           0        4.114472   -4.282880    0.026565
     26          1           0        5.014564   -0.213220    0.520465
     27          6           0        0.654047   -1.300502   -0.539622
     28          7           0        4.677427   -2.273665    0.292114
     29          6           0        6.038409   -2.618540    0.696730
     30          1           0        6.726262   -1.824562    0.392806
     31          1           0        6.126888   -2.759182    1.783589
     32          1           0        6.346426   -3.543358    0.200969
     33          6           0        2.602056    0.882256    0.059091
     34          6           0        2.258530    1.510238    1.277821
     35          6           0        1.932119    2.875073    1.279391
     36          6           0        1.927559    3.633403    0.102366
     37          6           0        2.260726    2.991433   -1.098482
     38          6           0        2.590408    1.630004   -1.142543
     39          1           0        1.671162    3.352515    2.221073
     40          1           0        2.257568    3.560206   -2.025254
     41          6           0        1.545262    5.097896    0.117666
     42          1           0        2.186653    5.687361   -0.547978
     43          1           0        0.509986    5.243473   -0.220142
     44          1           0        1.624148    5.521328    1.124722
     45          6           0        2.918975    0.977323   -2.467886
     46          1           0        3.915420    0.519604   -2.460614
     47          1           0        2.201729    0.180811   -2.697924
     48          1           0        2.886071    1.708125   -3.281792
     49          6           0        2.228963    0.730696    2.576631
     50          1           0        1.613125   -0.170950    2.480970
     51          1           0        3.230074    0.400650    2.881015
     52          1           0        1.818040    1.342000    3.386713
 ---------------------------------------------------------------------

 SCF Done:  E(RB3LYP) =  -1151.38772929     A.U. after   25 cycles

 Excitation energies and oscillator strengths:

 Excited State   1:      Triplet-A      0.2001 eV 6195.10 nm  f=0.0000  <S**2>=2.000
      98 -> 99         0.73786
      98 ->100         0.20265
      98 ->105        -0.11166
      98 <- 99         0.26197
      98 <-100         0.15016
 This state for optimization and/or second-order correction.
 Total Energy, E(TD-HF/TD-KS) =  -1151.38037455
 Copying the excited state density for this state as the 1-particle RhoCI density.

 Excited State   2:      Singlet-A      0.5240 eV 2366.05 nm  f=0.0002  <S**2>=0.000
      98 -> 99         0.71080

 Excited State   3:      Triplet-A      0.5931 eV 2090.61 nm  f=0.0000  <S**2>=2.000
      97 ->101        -0.11000
      98 -> 99        -0.14823
      98 ->100         0.73115
      98 ->105        -0.15820
      98 <-100         0.28650
      98 <-105        -0.10818

 Excited State   4:      Triplet-A      0.8972 eV 1381.93 nm  f=0.0000  <S**2>=2.000
      97 -> 99         0.70469

 Excited State   5:      Singlet-A      0.9086 eV 1364.57 nm  f=0.0000  <S**2>=0.000
      97 -> 99         0.70571

 Excited State   6:      Singlet-A      1.6593 eV  747.19 nm  f=0.0001  <S**2>=0.000
      97 ->100         0.70187

 The electronic state is 1-A.
 Alpha  occ. eigenvalues --  -19.03303 -14.46655 -14.37004 -10.27819 -10.27120
 Alpha  occ. eigenvalues --  -10.25316 -10.23155 -10.22934 -10.22493 -10.21485
 Alpha  occ. eigenvalues --  -10.21280 -10.21080 -10.20991 -10.18380 -10.17625
 Alpha  occ. eigenvalues --  -10.17295 -10.17172 -10.17097 -10.16798 -10.16655
 Alpha  occ. eigenvalues --  -10.16130 -10.15709 -10.15632 -10.15590 -10.15390
 Alpha  occ. eigenvalues --  -10.14773 -10.13770 -10.13413  -1.04735  -0.96581
 Alpha  occ. eigenvalues --   -0.93244  -0.86108  -0.84536  -0.81368  -0.80936
 Alpha  occ. eigenvalues --   -0.77385  -0.77181  -0.75838  -0.74693  -0.74351
 Alpha  occ. eigenvalues --   -0.71986  -0.69743  -0.68117  -0.67325  -0.66322
 Alpha  occ. eigenvalues --   -0.65733  -0.65503  -0.62312  -0.61333  -0.58007
 Alpha  occ. eigenvalues --   -0.56106  -0.55311  -0.54808  -0.53685  -0.52307
 Alpha  occ. eigenvalues --   -0.51793  -0.50908  -0.49184  -0.48638  -0.48320
 Alpha  occ. eigenvalues --   -0.47433  -0.46428  -0.46098  -0.45724  -0.45171
 Alpha  occ. eigenvalues --   -0.43095  -0.42737  -0.41613  -0.41451  -0.41036
 Alpha  occ. eigenvalues --   -0.40498  -0.39887  -0.39415  -0.39096  -0.38739
 Alpha  occ. eigenvalues --   -0.38400  -0.38015  -0.37802  -0.37597  -0.36355
 Alpha  occ. eigenvalues --   -0.35321  -0.34924  -0.34407  -0.33627  -0.31867
 Alpha  occ. eigenvalues --   -0.31479  -0.30990  -0.30713  -0.30028  -0.27788
 Alpha  occ. eigenvalues --   -0.25257  -0.24243  -0.23943  -0.21290  -0.20943
 Alpha  occ. eigenvalues --   -0.18044  -0.13239  -0.12401
 Alpha virt. eigenvalues --   -0.08069  -0.04700  -0.00079   0.01481   0.02366
 Alpha virt. eigenvalues --    0.03161   0.04426   0.04826   0.07980   0.08920
 Alpha virt. eigenvalues --    0.09910   0.11117   0.11365   0.11695   0.11941

 Mulliken charges:
               1
     1  C   -0.174611
     2  C   -0.055052
     3  C    0.003948
     4  C    0.130758
     5  C    0.142510
     6  H    0.160285
     7  H    0.187144
     8  H    0.227051
     9  H    0.178641
    10  N   -0.566179
    11  C   -0.257297
    12  H    0.204733
    13  H    0.203144
    14  H    0.173040
    15  C    0.273747
    16  C   -0.003797
    17  C   -0.443599
    18  O   -0.538261
    19  C    0.263049
    20  C   -0.089345
    21  C    0.109594
    22  C    0.075617
    23  C    0.010359
    24  H    0.139813
    25  H    0.140322
    26  H    0.152993
    27  C   -0.313509
    28  N   -0.597280
    29  C   -0.243284
    30  H    0.160475
    31  H    0.157980
    32  H    0.158188
    33  C   -0.084684
    34  C    0.149471
    35  C   -0.223241
    36  C    0.150276
    37  C   -0.217608
    38  C    0.153620
    39  H    0.103662
    40  H    0.110626
    41  C   -0.483309
    42  H    0.142592
    43  H    0.154761
    44  H    0.136154
    45  C   -0.473640
    46  H    0.138781
    47  H    0.180029
    48  H    0.131696
    49  C   -0.470723
    50  H    0.161628
    51  H    0.140073
    52  H    0.128656
 Sum of Mulliken charges =   0.00000

 Dipole moment (field-independent basis, Debye):
    X=             -5.1009    Y=             -0.6332    Z=              8.2013  Tot=              9.6789
 Quadrupole moment (field-independent basis, Debye-Ang):
   XX=            -55.1231   YY=           -155.4872   ZZ=           -172.2167
   XY=            -14.3288   XZ=            -25.2375   YZ=             -6.2707

 Normal termination of Gaussian 09 at Wed Mar 05 12:57:52 2025.
