 Gaussian 09, Revision D.01,
 Gaussian 09:  EM64W-G09RevD.01 13-Apr-2013

 ----------------------------------------------------
 # td=(50-50,nstates=3) b3lyp/6-31g geom=connectivity
 ----------------------------------------------------

 -------------------
 Title Card Required
 -------------------
 Symbolic Z-matrix:
 Charge =  0 Multiplicity = 1

                         Standard orientation:
 ---------------------------------------------------------------------
 Center     Atomic      Atomic             Coordinates (Angstroms)
 Number     Number       Type             X           Y           Z
 ---------------------------------------------------------------------
      1          6           0       -5.182460   -4.084060   -0.078800
      2          6           0       -4.213567   -3.507027   -0.913240
      3          6           0       -3.720417   -2.263218   -0.512349
      4          6           0       -4.163297   -1.632724    0.660861
      5          6           0       -5.130200   -2.195276    1.496497
      6          6           0       -5.630470   -3.443773    1.098205
      7          1           0       -5.606110   -5.049045   -0.342150
      8          1           0       -3.884917   -4.010418   -1.816507
      9          1           0       -5.481617   -1.711514    2.401691
     10          1           0       -6.383789   -3.935580    1.706891
     11         14           0       -2.886403   -0.612981   -0.231022
     12          6           0       -1.120291   -0.351283    0.401936
     13          6           0       -0.769637   -0.691039    1.717018
     14          6           0        0.507525   -0.395381    2.198511
     15          6           0        1.449618    0.266052    1.397874
     16          6           0        1.101615    0.628640    0.074689
     17          6           0       -0.169532    0.282263   -0.418970
     18          1           0       -1.495680   -1.168685    2.365767
     19          1           0        0.788465   -0.681246    3.205932
     20          6           0       -3.406748    0.831570   -1.452401
     21          6           0       -3.229644    2.284791   -1.185598
     22          8           0       -3.847043    0.517475   -2.579985
     23          7           0       -2.925692    5.503977    0.129317
     24          6           0       -3.049721    4.337891    0.085560
     25          6           0       -3.199453    2.911830    0.020479
     26          6           0       -3.347106    2.246211    1.282858
     27          7           0       -3.482170    1.744503    2.335324
     28          1           0       -3.156030    2.895378   -2.081690
     29          8           0       -0.556310    0.663671   -1.727748
     30          8           0        2.035543    1.410528   -0.582314
     31          6           0       -0.550221   -0.395414   -2.756049
     32          6           0        2.273306    1.322943   -2.018955
     33          1           0        0.474279   -0.605862   -3.075754
     34          1           0       -1.136685    0.000046   -3.584727
     35          1           0       -1.013906   -1.311646   -2.378287
     36          1           0        2.449413    0.283951   -2.319579
     37          1           0        3.181420    1.903858   -2.178796
     38          1           0        1.441860    1.748128   -2.581338
     39          6           0        3.956138    0.156219    1.214729
     40          6           0        4.943587   -0.248366    0.611325
     41         14           0        6.465370   -0.864878   -0.272726
     42          6           0        6.931246    0.384625   -1.647444
     43          1           0        6.120629    0.480389   -2.377800
     44          1           0        7.126217    1.374433   -1.221623
     45          1           0        7.832475    0.053351   -2.176538
     46          6           0        7.891310   -1.016231    0.994737
     47          1           0        7.629202   -1.722316    1.789681
     48          1           0        8.804184   -1.373724    0.504165
     49          1           0        8.106033   -0.046583    1.456102
     50          6           0        6.078840   -2.575791   -1.041060
     51          1           0        5.801902   -3.295871   -0.263886
     52          1           0        5.249149   -2.505889   -1.752601
     53          1           0        6.955530   -2.963838   -1.572809
     54          6           0        2.803720    0.588396    1.949530
     55          6           0        2.932463    1.209437    3.143585
     56          1           0        3.907301    1.407838    3.574400
     57          1           0        2.063035    1.544404    3.698654
 ---------------------------------------------------------------------

 SCF Done:  E(RB3LYP) =  -1918.76058883     A.U. after   18 cycles

 Excitation energies and oscillator strengths:

 Excited State   1:      Triplet-A      1.6967 eV  730.74 nm  f=0.0000  <S**2>=2.000
     114 ->124        -0.10781
     117 ->124         0.30543
     121 ->124         0.58128
 This state for optimization and/or second-order correction.
 Total Energy, E(TD-HF/TD-KS) =  -1918.69823622
 Copying the excited state density for this state as the 1-particle RhoCI density.

 Excited State   2:      Triplet-A      2.1611 eV  573.72 nm  f=0.0000  <S**2>=2.000
     122 ->124         0.26310
     123 ->124         0.64961

 Excited State   3:      Singlet-A      2.1687 eV  571.70 nm  f=0.0031  <S**2>=0.000
     117 ->124        -0.14058
     121 ->124        -0.36969
     122 ->124         0.16117
     123 ->124         0.54748

 Excited State   4:      Singlet-A      2.1942 eV  565.05 nm  f=0.0019  <S**2>=0.000
     117 ->124         0.19527
     121 ->124         0.50957
     122 ->124         0.19401
     123 ->124         0.37403

 Excited State   5:      Triplet-A      2.4146 eV  513.48 nm  f=0.0000  <S**2>=2.000
     112 ->124        -0.14833
     113 ->124         0.15854
     120 ->124        -0.12294
     122 ->124         0.59376
     123 ->124        -0.26580

 Excited State   6:      Singlet-A      2.4310 eV  510.01 nm  f=0.0022  <S**2>=0.000
     120 ->124        -0.12920
     122 ->124         0.64749
     123 ->124        -0.23377

 The electronic state is 1-A.
 Alpha  occ. eigenvalues --  -66.17778 -66.14535 -19.18817 -19.18005 -19.17672
 Alpha  occ. eigenvalues --  -14.38866 -14.38309 -10.30825 -10.30543 -10.27163
 Alpha  occ. eigenvalues --  -10.26673 -10.26647 -10.26535 -10.26476 -10.25181
 Alpha  occ. eigenvalues --  -10.24090 -10.22474 -10.21600 -10.20748 -10.20314
 Alpha  occ. eigenvalues --  -10.20217 -10.20207 -10.20104 -10.19971 -10.19922
 Alpha  occ. eigenvalues --  -10.19405 -10.19290 -10.19124 -10.18701 -10.16502
 Alpha  occ. eigenvalues --  -10.16339 -10.16318 -10.16177  -5.33385  -5.30119
 Alpha  occ. eigenvalues --   -3.69320  -3.69140  -3.69113  -3.66028  -3.65873
 Alpha  occ. eigenvalues --   -3.65870  -1.07822  -1.07224  -1.05319  -0.96664
 Alpha  occ. eigenvalues --   -0.95490  -0.87774  -0.87688  -0.86786  -0.82310
 Alpha  occ. eigenvalues --   -0.77504  -0.77119  -0.76001  -0.75254  -0.74012
 Alpha  occ. eigenvalues --   -0.73305  -0.71748  -0.71115  -0.69962  -0.68328
 Alpha  occ. eigenvalues --   -0.68234  -0.65392  -0.64048  -0.63672  -0.61332
 Alpha  occ. eigenvalues --   -0.59499  -0.58758  -0.58512  -0.55696  -0.54184
 Alpha  occ. eigenvalues --   -0.52525  -0.52087  -0.51088  -0.50575  -0.48648
 Alpha  occ. eigenvalues --   -0.48060  -0.47886  -0.46572  -0.46359  -0.46071
 Alpha  occ. eigenvalues --   -0.46024  -0.45356  -0.45111  -0.44661  -0.44071
 Alpha  occ. eigenvalues --   -0.43327  -0.42429  -0.41147  -0.41064  -0.41022
 Alpha  occ. eigenvalues --   -0.40595  -0.40454  -0.40012  -0.39635  -0.39532
 Alpha  occ. eigenvalues --   -0.39482  -0.39314  -0.38837  -0.38636  -0.38584
 Alpha  occ. eigenvalues --   -0.37993  -0.37714  -0.37486  -0.36645  -0.36425
 Alpha  occ. eigenvalues --   -0.36103  -0.34976  -0.34181  -0.33272  -0.31898
 Alpha  occ. eigenvalues --   -0.31231  -0.30762  -0.30697  -0.30034  -0.29474
 Alpha  occ. eigenvalues --   -0.28450  -0.27365  -0.26246  -0.26050  -0.25600
 Alpha  occ. eigenvalues --   -0.25110  -0.23741  -0.22894
 Alpha virt. eigenvalues --   -0.13054  -0.05077  -0.03908  -0.02660  -0.02208
 Alpha virt. eigenvalues --   -0.01770  -0.00936  -0.00603   0.01513   0.02313
 Alpha virt. eigenvalues --    0.02800   0.04351   0.04861   0.06541   0.07177

 Mulliken charges:
               1
     1  C   -0.121792
     2  C   -0.189092
     3  C   -0.163820
     4  C   -0.174314
     5  C   -0.185536
     6  C   -0.124087
     7  H    0.130818
     8  H    0.136119
     9  H    0.146618
    10  H    0.131750
    11  Si   0.919426
    12  C   -0.248735
    13  C   -0.169603
    14  C   -0.118130
    15  C    0.002840
    16  C    0.304855
    17  C    0.231700
    18  H    0.158159
    19  H    0.143734
    20  C    0.097161
    21  C   -0.055403
    22  O   -0.402509
    23  N   -0.210249
    24  C    0.036312
    25  C    0.190017
    26  C    0.060632
    27  N   -0.232542
    28  H    0.197552
    29  O   -0.565633
    30  O   -0.554664
    31  C   -0.195968
    32  C   -0.166665
    33  H    0.147380
    34  H    0.185140
    35  H    0.172718
    36  H    0.141521
    37  H    0.171165
    38  H    0.172258
    39  C   -0.104275
    40  C   -0.324053
    41  Si   0.953471
    42  C   -0.695239
    43  H    0.154900
    44  H    0.166267
    45  H    0.155201
    46  C   -0.696606
    47  H    0.164391
    48  H    0.154747
    49  H    0.164543
    50  C   -0.694552
    51  H    0.165150
    52  H    0.157206
    53  H    0.154984
    54  C    0.109984
    55  C   -0.273005
    56  H    0.147264
    57  H    0.140493
 Sum of Mulliken charges =   0.00000

 Dipole moment (field-independent basis, Debye):
    X=              2.3575    Y=             -4.0880    Z=             -2.1453  Tot=              5.1838
 Quadrupole moment (field-independent basis, Debye-Ang):
   XX=           -198.3466   YY=           -220.1001   ZZ=           -198.4241
   XY=             10.0758   XZ=             -7.4259   YZ=             -3.4305

 1|1|UNPC-NAAC4|SP|RB3LYP TD-FC|6-31G|C26H24N2O3Si2|123|05-Mar-2025|0||
 # td=(50-50,nstates=3) b3lyp/6-31g geom=connectivity||Title Card Requi
 red||0,1|C,0,5.18246,4.08406,-0.0788|C,0,4.213567,3.507027,-0.91324|C,
 0,3.720417,2.263218,-0.512349|C,0,4.163297,1.632724,0.660861|C,0,5.130
 2,2.195276,1.496497|C,0,5.63047,3.443773,1.098205|H,0,5.60611,5.049045
 ,-0.34215|H,0,3.884917,4.010418,-1.816507|H,0,5.481617,1.711514,2.4016
 91|H,0,6.383789,3.93558,1.706891|Si,0,2.886403,0.612981,-0.231022|C,0,
 1.120291,0.351283,0.401936|C,0,0.769637,0.691039,1.717018|C,0,-0.50752

 Normal termination of Gaussian 09 at Wed Mar 05 12:18:01 2025.
