 Gaussian 09, Revision D.01,
 Gaussian 09:  EM64W-G09RevD.01 13-Apr-2013

 -----------------------------------------------------
 # td=(50-50,nstates=3) ub3lyp/6-31g geom=connectivity
 -----------------------------------------------------

 -------------------
 Title Card Required
 -------------------
 Symbolic Z-matrix:
 Charge =  0 Multiplicity = 2

                         Standard orientation:
 ---------------------------------------------------------------------
 Center     Atomic      Atomic             Coordinates (Angstroms)
 Number     Number       Type             X           Y           Z
 ---------------------------------------------------------------------
      1          6           0       -3.939497   -0.035227    0.148469
      2          6           0       -3.954936    2.345087   -0.284077
      3          6           0       -2.596370    2.307940   -0.483718
      4          6           0       -1.859440    1.107516   -0.377829
      5          6           0       -2.581054   -0.093005   -0.045670
      6          1           0       -4.525898   -0.911486    0.396443
      7          1           0       -4.554318    3.242015   -0.351702
      8          1           0       -2.086691    3.233992   -0.728602
      9          1           0       -0.792460    1.097134   -0.544816
     10          6           0       -1.124591   -1.876216   -1.119404
     11          6           0       -1.916402   -1.432485    0.103286
     12          6           0        0.707442   -0.815590    1.077351
     13          6           0        1.047170   -0.892248   -0.288003
     14          1           0        0.620188   -1.788411   -2.111503
     15          6           0        2.256707   -0.339169   -0.728997
     16          6           0        1.578431   -0.187001    1.974766
     17          6           0        2.791313    0.345900    1.538743
     18          6           0        3.125649    0.270068    0.180343
     19          1           0        2.512391   -0.375461   -1.782501
     20          1           0        1.300806   -0.118447    3.020239
     21          1           0        3.460386    0.830264    2.238761
     22         16           0       -0.818223   -1.598560    1.696363
     23          7           0        0.209181   -1.531956   -1.221522
     24          7           0       -4.651427    1.156815    0.045243
     25          6           0       -6.109283    1.179370    0.133454
     26          1           0       -6.574439    1.266693   -0.858363
     27          1           0       -6.462644    0.258873    0.603155
     28          1           0       -6.435565    2.026181    0.746872
     29          8           0       -1.685676   -2.504325   -2.038332
     30          6           0        4.441647    0.777900   -0.297264
     31          9           0        4.378737    1.262862   -1.603957
     32          9           0        5.428911   -0.212854   -0.305975
     33          9           0        4.934426    1.806182    0.501257
     34          1           0       -2.668450   -2.206565    0.260187
 ---------------------------------------------------------------------

 SCF Done:  E(UB3LYP) =  -1460.93816699     A.U. after   21 cycles

 Excitation energies and oscillator strengths:

 Excited State   1:  2.032-A      1.0099 eV 1227.67 nm  f=0.0120  <S**2>=0.782
     84A -> 85A        0.90879
     84A -> 86A       -0.22614
     84A -> 87A       -0.32182
 This state for optimization and/or second-order correction.
 Total Energy, E(TD-HF/TD-KS) =  -1460.90105327
 Copying the excited state density for this state as the 1-particle RhoCI density.

 Excited State   2:  2.026-A      1.6168 eV  766.87 nm  f=0.0108  <S**2>=0.777
     84A -> 85A        0.34603
     84A -> 86A        0.87419
     84A -> 87A        0.31612

 Excited State   3:  2.028-A      1.8373 eV  674.80 nm  f=0.0019  <S**2>=0.778
     84A -> 85A        0.22510
     84A -> 86A       -0.42695
     84A -> 87A        0.83568
     84A -> 88A        0.22683

 The electronic state is 2-A.
 Alpha  occ. eigenvalues --  -88.88620 -24.72985 -24.72899 -24.72111 -19.13651
 Alpha  occ. eigenvalues --  -14.39469 -14.39157 -10.44620 -10.32043 -10.26950
 Alpha  occ. eigenvalues --  -10.25266 -10.25203 -10.23650 -10.23589 -10.23355
 Alpha  occ. eigenvalues --  -10.22520 -10.22060 -10.21827 -10.21773 -10.21009
 Alpha  occ. eigenvalues --  -10.19408 -10.17859  -7.96262  -5.92701  -5.92314
 Alpha  occ. eigenvalues --   -5.91524  -1.29884  -1.21935  -1.21157  -1.06648
 Alpha  occ. eigenvalues --   -0.98493  -0.97187  -0.89197  -0.85187  -0.82310
 Alpha  occ. eigenvalues --   -0.80056  -0.78201  -0.76863  -0.73265  -0.71846
 Alpha  occ. eigenvalues --   -0.67981  -0.66224  -0.65567  -0.64031  -0.63291
 Alpha  occ. eigenvalues --   -0.59955  -0.57997  -0.57288  -0.57004  -0.53992
 Alpha  occ. eigenvalues --   -0.52473  -0.51498  -0.50442  -0.49660  -0.48838
 Alpha  occ. eigenvalues --   -0.47778  -0.47188  -0.46410  -0.46127  -0.45245
 Alpha  occ. eigenvalues --   -0.45131  -0.44948  -0.43154  -0.42806  -0.42025
 Alpha  occ. eigenvalues --   -0.41955  -0.41755  -0.40678  -0.40307  -0.40023
 Alpha  occ. eigenvalues --   -0.39402  -0.39055  -0.37978  -0.36963  -0.36427
 Alpha  occ. eigenvalues --   -0.34760  -0.32417  -0.30872  -0.29436  -0.28520
 Alpha  occ. eigenvalues --   -0.26235  -0.25340  -0.23086  -0.12048
 Alpha virt. eigenvalues --   -0.05430  -0.03891  -0.01781   0.01174   0.02545
 Alpha virt. eigenvalues --    0.04073   0.07074   0.07598   0.09656   0.10056
 Alpha virt. eigenvalues --    0.10296   0.10835   0.11367   0.11386   0.12426

  Beta  occ. eigenvalues --  -88.88614 -24.72984 -24.72899 -24.72109 -19.13649
  Beta  occ. eigenvalues --  -14.39466 -14.38552 -10.44620 -10.32041 -10.26945
  Beta  occ. eigenvalues --  -10.25250 -10.25204 -10.23685 -10.23385 -10.23347
  Beta  occ. eigenvalues --  -10.22522 -10.21823 -10.21773 -10.21577 -10.21102
  Beta  occ. eigenvalues --  -10.19620 -10.17146  -7.96255  -5.92688  -5.92306
  Beta  occ. eigenvalues --   -5.91520  -1.29883  -1.21934  -1.21154  -1.06643
  Beta  occ. eigenvalues --   -0.97374  -0.97174  -0.89189  -0.84942  -0.82133
  Beta  occ. eigenvalues --   -0.79683  -0.78142  -0.76518  -0.73032  -0.71403
  Beta  occ. eigenvalues --   -0.67891  -0.66180  -0.65409  -0.63565  -0.62893
  Beta  occ. eigenvalues --   -0.59918  -0.57950  -0.57283  -0.56965  -0.53715
  Beta  occ. eigenvalues --   -0.52466  -0.51297  -0.50275  -0.49307  -0.48750
  Beta  occ. eigenvalues --   -0.47037  -0.46697  -0.46387  -0.46029  -0.45151
  Beta  occ. eigenvalues --   -0.45123  -0.44892  -0.43100  -0.42756  -0.41963
  Beta  occ. eigenvalues --   -0.41938  -0.41736  -0.40583  -0.40284  -0.39965
  Beta  occ. eigenvalues --   -0.39316  -0.38641  -0.37037  -0.36750  -0.36119
  Beta  occ. eigenvalues --   -0.34612  -0.32392  -0.30809  -0.27885  -0.26834
  Beta  occ. eigenvalues --   -0.25321  -0.25136  -0.22922
  Beta virt. eigenvalues --   -0.05384  -0.03879  -0.03184  -0.01433   0.01306
  Beta virt. eigenvalues --    0.02750   0.04329   0.07102   0.07740   0.09659
  Beta virt. eigenvalues --    0.10112   0.10405   0.10995   0.11379   0.12306

 Mulliken charges and spin densities:
               1          2
     1  C    0.092466   0.157040
     2  C    0.097565   0.369159
     3  C   -0.156060  -0.199619
     4  C   -0.139489   0.564278
     5  C    0.147295  -0.105161
     6  H    0.153562  -0.008233
     7  H    0.143105  -0.018823
     8  H    0.133570   0.005542
     9  H    0.126521  -0.026486
    10  C    0.554334   0.001346
    11  C   -0.542697   0.016133
    12  C   -0.251282   0.000207
    13  C    0.349221   0.003623
    14  H    0.340173   0.000336
    15  C   -0.113496  -0.002081
    16  C   -0.166221   0.004002
    17  C   -0.081149  -0.002102
    18  C   -0.041279   0.005654
    19  H    0.165469   0.000072
    20  H    0.156703  -0.000129
    21  H    0.165038   0.000074
    22  S    0.341738   0.008152
    23  N   -0.751350  -0.000103
    24  N   -0.592765   0.216905
    25  C   -0.247350  -0.024749
    26  H    0.166196   0.022396
    27  H    0.160012   0.001329
    28  H    0.163647   0.011337
    29  O   -0.433184   0.000385
    30  C    0.689821   0.000103
    31  F   -0.282788   0.000068
    32  F   -0.272238   0.000246
    33  F   -0.281537   0.000060
    34  H    0.206448  -0.000962
 Sum of Mulliken charges =   0.00000   1.00000

 Dipole moment (field-independent basis, Debye):
    X=             -4.6885    Y=              1.7870    Z=              1.6021  Tot=              5.2670
 Quadrupole moment (field-independent basis, Debye-Ang):
   XX=           -121.2352   YY=           -136.6929   ZZ=           -135.0614
   XY=            -12.2075   XZ=             -3.3917   YZ=             -2.8722

 Normal termination of Gaussian 09 at Wed Mar 05 13:15:52 2025.
