 Gaussian 09, Revision D.01,
 Gaussian 09:  EM64W-G09RevD.01 13-Apr-2013

 -----------------------------------------------------
 # td=(50-50,nstates=3) ub3lyp/6-31g geom=connectivity
 -----------------------------------------------------

 -------------------
 Title Card Required
 -------------------
 Symbolic Z-matrix:
 Charge =  0 Multiplicity = 2

                         Standard orientation:
 ---------------------------------------------------------------------
 Center     Atomic      Atomic             Coordinates (Angstroms)
 Number     Number       Type             X           Y           Z
 ---------------------------------------------------------------------
      1          6           0        0.807216    0.067566   -0.012852
      2          6           0        0.206087    1.347733    0.076238
      3          6           0       -1.175448    1.498276    0.086174
      4          6           0       -2.055136    0.396436    0.013175
      5          6           0       -1.457484   -0.872472   -0.074274
      6          6           0       -0.075147   -1.042894   -0.088928
      7          1           0        0.798985    2.248902    0.168718
      8          1           0       -2.088407   -1.752347   -0.140967
      9          1           0        0.320480   -2.046938   -0.190531
     10          6           0        4.511731    0.846247   -0.262354
     11          6           0        3.156130    1.004525   -0.251108
     12          6           0        2.254460   -0.093999   -0.027498
     13          6           0        2.898836   -1.361910    0.182982
     14          6           0        4.256950   -1.501719    0.176771
     15          1           0        5.196832    1.663648   -0.447332
     16          1           0        2.766261    1.994865   -0.451823
     17          1           0        2.306890   -2.247271    0.380116
     18          1           0        4.750557   -2.449526    0.348562
     19          8           0       -1.644230    2.814574    0.183845
     20          1           0       -2.618461    2.849505    0.195152
     21          7           0        5.103050   -0.408561   -0.058420
     22          6           0        6.549682   -0.540247    0.083616
     23          1           0        7.049742    0.207486   -0.538275
     24          1           0        6.878416   -0.404408    1.124431
     25          1           0        6.865590   -1.531625   -0.253693
     26          6           0       -3.557915    0.623945    0.032324
     27          1           0       -3.834822    1.177089    0.947994
     28          1           0       -3.843501    1.278438   -0.810685
     29          6           0       -4.434060   -0.638887   -0.035088
     30          1           0       -4.202959   -1.197903   -0.952915
     31          1           0       -4.187534   -1.301657    0.806417
     32          6           0       -5.940242   -0.320838   -0.003955
     33          1           0       -6.173297    0.240996    0.912726
     34          1           0       -6.188040    0.344391   -0.844380
     35          6           0       -6.818431   -1.580374   -0.070544
     36          1           0       -6.613144   -2.248689    0.775049
     37          1           0       -7.884284   -1.326201   -0.045336
     38          1           0       -6.630196   -2.143748   -0.993118
 ---------------------------------------------------------------------

 SCF Done:  E(UB3LYP) =  -751.497375814     A.U. after   22 cycles

 Excitation energies and oscillator strengths:

 Excited State   1:  2.038-A      1.6648 eV  744.73 nm  f=0.0008  <S**2>=0.789
     66A -> 67A        0.98441
 This state for optimization and/or second-order correction.
 Total Energy, E(TD-HF/TD-KS) =  -751.436194740
 Copying the excited state density for this state as the 1-particle RhoCI density.

 Excited State   2:  2.106-A      2.7439 eV  451.85 nm  f=0.0783  <S**2>=0.859
     66A -> 68A        0.89189
     64B -> 66B       -0.28157
     65B -> 66B       -0.27860

 Excited State   3:  2.093-A      2.8960 eV  428.12 nm  f=0.0075  <S**2>=0.846
     66A -> 68A       -0.19476
     66A -> 69A        0.89278
     65B -> 66B       -0.35216

 The electronic state is 2-A.
 Alpha  occ. eigenvalues --  -19.15312 -14.38037 -10.22995 -10.22729 -10.21840
 Alpha  occ. eigenvalues --  -10.21829 -10.18602 -10.18089 -10.17995 -10.17885
 Alpha  occ. eigenvalues --  -10.17811 -10.17719 -10.17673 -10.17620 -10.16852
 Alpha  occ. eigenvalues --  -10.16777 -10.16097 -10.15962  -1.03885  -0.97508
 Alpha  occ. eigenvalues --   -0.84561  -0.81815  -0.79758  -0.76806  -0.75981
 Alpha  occ. eigenvalues --   -0.72917  -0.72502  -0.69624  -0.65307  -0.63626
 Alpha  occ. eigenvalues --   -0.61902  -0.59502  -0.58562  -0.56842  -0.53929
 Alpha  occ. eigenvalues --   -0.51215  -0.49276  -0.47491  -0.47397  -0.47150
 Alpha  occ. eigenvalues --   -0.46831  -0.44601  -0.43900  -0.43361  -0.42508
 Alpha  occ. eigenvalues --   -0.42192  -0.41660  -0.40520  -0.39106  -0.38532
 Alpha  occ. eigenvalues --   -0.37737  -0.37677  -0.36565  -0.35281  -0.34773
 Alpha  occ. eigenvalues --   -0.34047  -0.33657  -0.32724  -0.32436  -0.32287
 Alpha  occ. eigenvalues --   -0.31073  -0.28351  -0.26948  -0.22281  -0.20495
 Alpha  occ. eigenvalues --   -0.10776
 Alpha virt. eigenvalues --    0.00064   0.02516   0.03278   0.07311   0.08343
 Alpha virt. eigenvalues --    0.09043   0.10759   0.11365   0.11492   0.12716
 Alpha virt. eigenvalues --    0.13175   0.13462   0.14094   0.14929   0.14996

  Beta  occ. eigenvalues --  -19.15333 -14.37483 -10.23027 -10.22820 -10.21561
  Beta  occ. eigenvalues --  -10.21555 -10.18618 -10.18214 -10.18115 -10.17937
  Beta  occ. eigenvalues --  -10.17719 -10.17672 -10.17416 -10.17261 -10.16941
  Beta  occ. eigenvalues --  -10.16777 -10.15922 -10.15775  -1.03938  -0.96496
  Beta  occ. eigenvalues --   -0.84263  -0.81393  -0.79656  -0.76290  -0.75788
  Beta  occ. eigenvalues --   -0.72632  -0.72306  -0.69502  -0.65088  -0.63504
  Beta  occ. eigenvalues --   -0.61309  -0.59439  -0.58413  -0.56757  -0.53726
  Beta  occ. eigenvalues --   -0.51031  -0.49019  -0.47452  -0.47214  -0.46797
  Beta  occ. eigenvalues --   -0.45975  -0.44479  -0.43782  -0.43208  -0.42410
  Beta  occ. eigenvalues --   -0.42168  -0.41602  -0.40421  -0.39020  -0.38233
  Beta  occ. eigenvalues --   -0.37614  -0.36641  -0.36393  -0.35203  -0.34648
  Beta  occ. eigenvalues --   -0.33963  -0.33615  -0.32546  -0.32259  -0.31753
  Beta  occ. eigenvalues --   -0.31019  -0.26665  -0.25595  -0.21443  -0.19756
  Beta virt. eigenvalues --   -0.03793   0.00517   0.03270   0.04261   0.07305
  Beta virt. eigenvalues --    0.08465   0.09050   0.10838   0.11517   0.12052
  Beta virt. eigenvalues --    0.12787   0.13221   0.13901   0.14540   0.14978

 Mulliken charges and spin densities:
               1          2
     1  C    0.056313  -0.126527
     2  C   -0.148431   0.151505
     3  C    0.168247  -0.077286
     4  C    0.157078   0.157753
     5  C   -0.190149  -0.082758
     6  C   -0.155772   0.143006
     7  H    0.128039  -0.006372
     8  H    0.115725   0.002673
     9  H    0.108347  -0.006065
    10  C    0.097404   0.209440
    11  C   -0.158273  -0.117464
    12  C    0.005661   0.469747
    13  C   -0.160655  -0.121570
    14  C    0.097290   0.214684
    15  H    0.141260  -0.010863
    16  H    0.137083   0.002865
    17  H    0.132322   0.002808
    18  H    0.140297  -0.011267
    19  O   -0.632498  -0.004686
    20  H    0.371642   0.000122
    21  N   -0.582711   0.202002
    22  C   -0.245535  -0.022452
    23  H    0.159796   0.004475
    24  H    0.160761   0.022006
    25  H    0.159663   0.004958
    26  C   -0.365616  -0.014302
    27  H    0.134702   0.006264
    28  H    0.136203   0.006448
    29  C   -0.234646   0.000804
    30  H    0.134164   0.000022
    31  H    0.134058   0.000056
    32  C   -0.240225  -0.000012
    33  H    0.123816   0.000008
    34  H    0.123898   0.000005
    35  C   -0.406248  -0.000050
    36  H    0.132834   0.000014
    37  H    0.131290  -0.000001
    38  H    0.132867   0.000012
 Sum of Mulliken charges =   0.00000   1.00000

 Dipole moment (field-independent basis, Debye):
    X=              2.2845    Y=             -1.4140    Z=              0.0414  Tot=              2.6870
 Quadrupole moment (field-independent basis, Debye-Ang):
   XX=            -66.7214   YY=           -106.1476   ZZ=           -113.4804
   XY=             -4.1497   XZ=              0.1740   YZ=             -1.4541

 1|1|UNPC-NAAC4|SP|UB3LYP TD-FC|6-31G|C16H20N1O1(2)|123|05-Mar-2025|0||
 # td=(50-50,nstates=3) ub3lyp/6-31g geom=connectivity||Title Card Requ
 ired||0,2|C,0,0.807216,0.067566,-0.012852|C,0,0.206087,1.347733,0.0762
 38|C,0,-1.175448,1.498276,0.086174|C,0,-2.055136,0.396436,0.013175|C,0
 ,-1.457484,-0.872472,-0.074274|C,0,-0.075147,-1.042894,-0.088928|H,0,0
 .798985,2.248902,0.168718|H,0,-2.088407,-1.752347,-0.140967|H,0,0.3204
 8,-2.046938,-0.190531|C,0,4.511731,0.846247,-0.262354|C,0,3.15613,1.00
 4525,-0.251108|C,0,2.25446,-0.093999,-0.027498|C,0,2.898836,-1.36191,0

 Normal termination of Gaussian 09 at Wed Mar 05 14:02:18 2025.
