 Gaussian 16, Revision C.02,
 Gaussian 16:  ES64L-G16RevC.02  7-Dec-2021

 -----------------------------------
 # td=(50-50,nstates=3) ub3lyp/6-31g
 -----------------------------------

 ----------
 [No Title]
 ----------
 Symbolic Z-matrix:
 Charge =  0 Multiplicity = 2

                         Standard orientation:
 ---------------------------------------------------------------------
 Center     Atomic      Atomic             Coordinates (Angstroms)
 Number     Number       Type             X           Y           Z
 ---------------------------------------------------------------------
      1          6           0        4.299602    2.202999   -0.317635
      2          6           0        2.806074    1.983820   -0.152283
      3          6           0        2.003513    3.130898   -0.024106
      4          6           0        0.615251    3.059670    0.101801
      5          6           0       -0.231533    4.308993    0.208174
      6          6           0        0.024550    1.788439    0.109848
      7          6           0        0.786058    0.619509   -0.008133
      8          6           0        0.083843   -0.749256    0.016114
      9          6           0       -1.426692   -0.723429    0.138509
     10          6           0       -2.050236   -0.786760    1.394827
     11          6           0       -3.444003   -0.772106    1.508672
     12          6           0       -4.241321   -0.693883    0.360976
     13          6           0       -5.775202   -0.675209    0.495599
     14          6           0       -6.349546    0.607476    0.039923
     15          7           0       -6.776834    1.639835   -0.310543
     16          6           0       -6.405870   -1.808239   -0.211259
     17          7           0       -6.880832   -2.723865   -0.765422
     18          6           0       -3.633141   -0.631042   -0.901095
     19          6           0        2.201484    0.701144   -0.141298
     20          1           0        4.605764    3.126889    0.185229
     21          1           0        4.883665    1.376199    0.095151
     22          1           0        4.573400    2.308544   -1.376327
     23          1           0        2.487418    4.104795   -0.024229
     24          1           0        0.365584    5.170176    0.525661
     25          1           0       -0.688775    4.565065   -0.757374
     26          1           0       -1.049056    4.180443    0.926747
     27          1           0        0.343478   -1.300786   -0.897287
     28          1           0        0.486224   -1.342560    0.848306
     29          1           0       -1.440867   -0.849005    2.291307
     30          1           0       -3.905280   -0.824797    2.490759
     31          1           0       -6.021231   -0.780335    1.562315
     32          6           0       -2.241469   -0.646620   -1.005944
     33          1           0       -4.242577   -0.575025   -1.797934
     34          6           0        4.074862   -0.729931    0.806990
     35          6           0        3.032127   -0.579289   -0.276854
     36          6           0        3.669095   -0.764781   -1.693939
     37          6           0        4.613343   -1.943566   -1.695504
     38          6           0        5.207989   -2.375052   -0.559622
     39          1           0        3.882595   -0.373059    1.812416
     40          1           0        4.188924    0.152899   -1.999956
     41          1           0        4.815877   -2.459499   -2.627953
     42          1           0        5.898872   -3.210277   -0.546423
     43          6           0        5.860005   -2.099962    1.815911
     44          1           0        6.676296   -1.372770    1.925237
     45          1           0        5.277680   -2.110224    2.742934
     46          1           0        6.294038   -3.092132    1.669648
     47          7           0        4.988505   -1.773514    0.685865
     48          1           0        2.861497   -0.912979   -2.423944
     49          1           0        2.348649   -1.436762   -0.179545
     50          1           0       -1.052036    1.713925    0.214814
     51          1           0       -1.778701   -0.598857   -1.986884
 ---------------------------------------------------------------------

 SCF Done:  E(UB3LYP) =  -1092.87629622     A.U. after   20 cycles

 Excitation energies and oscillator strengths:

 Excited State   1:  2.044-A      2.3161 eV  535.31 nm  f=0.0030  <S**2>=0.795
     95A -> 96A        0.99888
 This state for optimization and/or second-order correction.
 Total Energy, E(TD-HF/TD-DFT) =  -1092.79118100
 Copying the excited state density for this state as the 1-particle RhoCI density.

 Excited State   2:  2.044-A      2.4656 eV  502.86 nm  f=0.0004  <S**2>=0.794
     95A -> 97A        0.99007
     95A ->100A        0.13408

 Excited State   3:  2.043-A      3.0253 eV  409.82 nm  f=0.0010  <S**2>=0.794
     95A -> 97A       -0.13573
     95A -> 98A       -0.14870
     95A ->100A        0.96734

 The electronic state is 2-A.
 Alpha  occ. eigenvalues --  -14.37235 -14.37042 -14.37018 -10.29996 -10.25662
 Alpha  occ. eigenvalues --  -10.25645 -10.23427 -10.22394 -10.21626 -10.21536
 Alpha  occ. eigenvalues --  -10.21225 -10.20920 -10.20718 -10.20631 -10.19912
 Alpha  occ. eigenvalues --  -10.19868 -10.19604 -10.19299 -10.19021 -10.18829
 Alpha  occ. eigenvalues --  -10.18823 -10.17956 -10.17412 -10.17283 -10.17236
 Alpha  occ. eigenvalues --  -10.16791 -10.16668  -0.96422  -0.95374  -0.94281
 Alpha  occ. eigenvalues --   -0.89387  -0.86419  -0.84570  -0.81070  -0.79524
 Alpha  occ. eigenvalues --   -0.77828  -0.77194  -0.75788  -0.74691  -0.71821
 Alpha  occ. eigenvalues --   -0.69872  -0.68235  -0.67882  -0.63894  -0.62799
 Alpha  occ. eigenvalues --   -0.62523  -0.61462  -0.59174  -0.57263  -0.56242
 Alpha  occ. eigenvalues --   -0.54644  -0.53059  -0.51839  -0.51556  -0.49051
 Alpha  occ. eigenvalues --   -0.48209  -0.47597  -0.47085  -0.46473  -0.46002
 Alpha  occ. eigenvalues --   -0.44718  -0.44474  -0.43588  -0.42844  -0.42650
 Alpha  occ. eigenvalues --   -0.41940  -0.41204  -0.40986  -0.40787  -0.40635
 Alpha  occ. eigenvalues --   -0.39750  -0.39019  -0.38882  -0.38440  -0.38041
 Alpha  occ. eigenvalues --   -0.37271  -0.36776  -0.36530  -0.36404  -0.36198
 Alpha  occ. eigenvalues --   -0.35532  -0.35252  -0.34989  -0.34847  -0.34144
 Alpha  occ. eigenvalues --   -0.34007  -0.32724  -0.32399  -0.31471  -0.27465
 Alpha  occ. eigenvalues --   -0.26464  -0.23371  -0.23152  -0.22235  -0.13231
 Alpha virt. eigenvalues --   -0.03259  -0.02636  -0.00955  -0.00568   0.00541
 Alpha virt. eigenvalues --    0.00851   0.02928   0.04470   0.04735   0.07926
 Alpha virt. eigenvalues --    0.08177   0.08964   0.10230   0.10749   0.10956

  Beta  occ. eigenvalues --  -14.37042 -14.37018 -14.36938 -10.29996 -10.25662
  Beta  occ. eigenvalues --  -10.25645 -10.23427 -10.22416 -10.21625 -10.21536
  Beta  occ. eigenvalues --  -10.21225 -10.21023 -10.20718 -10.20631 -10.19864
  Beta  occ. eigenvalues --  -10.19609 -10.19362 -10.19026 -10.18832 -10.18823
  Beta  occ. eigenvalues --  -10.18806 -10.17939 -10.17411 -10.17281 -10.17232
  Beta  occ. eigenvalues --  -10.16620 -10.16502  -0.95602  -0.95374  -0.94281
  Beta  occ. eigenvalues --   -0.89386  -0.86394  -0.84564  -0.80813  -0.79501
  Beta  occ. eigenvalues --   -0.77644  -0.77194  -0.75633  -0.74212  -0.71460
  Beta  occ. eigenvalues --   -0.69852  -0.68086  -0.67841  -0.63894  -0.62377
  Beta  occ. eigenvalues --   -0.61902  -0.61448  -0.59174  -0.57247  -0.56166
  Beta  occ. eigenvalues --   -0.54642  -0.53054  -0.51573  -0.50927  -0.48850
  Beta  occ. eigenvalues --   -0.48081  -0.47580  -0.46868  -0.46305  -0.45421
  Beta  occ. eigenvalues --   -0.44716  -0.44458  -0.43381  -0.42792  -0.42437
  Beta  occ. eigenvalues --   -0.41819  -0.41143  -0.40968  -0.40651  -0.40533
  Beta  occ. eigenvalues --   -0.39638  -0.38954  -0.38807  -0.38435  -0.38040
  Beta  occ. eigenvalues --   -0.37270  -0.36696  -0.36419  -0.36230  -0.35958
  Beta  occ. eigenvalues --   -0.35368  -0.35110  -0.34985  -0.34428  -0.34120
  Beta  occ. eigenvalues --   -0.33099  -0.32560  -0.32204  -0.31323  -0.27464
  Beta  occ. eigenvalues --   -0.26452  -0.23326  -0.22669  -0.20416
  Beta virt. eigenvalues --   -0.03315  -0.02759  -0.02608  -0.00955  -0.00567
  Beta virt. eigenvalues --    0.00606   0.00852   0.02929   0.04733   0.05817
  Beta virt. eigenvalues --    0.07940   0.08271   0.09005   0.10305   0.10779

 Mulliken charges and spin densities:
               1          2
     1  C   -0.486228   0.021190
     2  C    0.074404  -0.004475
     3  C   -0.194987   0.002360
     4  C    0.127573  -0.002510
     5  C   -0.480447   0.000198
     6  C   -0.196875   0.001705
     7  C    0.070373  -0.003458
     8  C   -0.418560   0.002292
     9  C    0.100650   0.000482
    10  C   -0.143660   0.000292
    11  C   -0.142307  -0.000145
    12  C    0.122502   0.000344
    13  C   -0.304394  -0.000020
    14  C    0.159223   0.000010
    15  N   -0.236539   0.000005
    16  C    0.156970   0.000006
    17  N   -0.235812   0.000007
    18  C   -0.127403  -0.000166
    19  C    0.049509   0.008826
    20  H    0.136049  -0.000586
    21  H    0.163974   0.003138
    22  H    0.151544   0.000074
    23  H    0.111570   0.000054
    24  H    0.142305  -0.000017
    25  H    0.156676  -0.000125
    26  H    0.147083  -0.000045
    27  H    0.160526   0.000125
    28  H    0.159128  -0.000468
    29  H    0.139489  -0.000006
    30  H    0.137143   0.000019
    31  H    0.239896   0.000002
    32  C   -0.143944   0.000271
    33  H    0.155792   0.000008
    34  C    0.095607   0.792255
    35  C   -0.246512  -0.061937
    36  C   -0.274337  -0.004903
    37  C   -0.155230   0.228956
    38  C    0.116010  -0.084529
    39  H    0.117433  -0.036718
    40  H    0.150328   0.004347
    41  H    0.111873  -0.011149
    42  H    0.129812   0.002952
    43  C   -0.240190  -0.013545
    44  H    0.159283   0.014923
    45  H    0.153530   0.010957
    46  H    0.152755   0.000054
    47  N   -0.561348   0.081308
    48  H    0.126697   0.009040
    49  H    0.142969   0.038659
    50  H    0.126154  -0.000053
    51  H    0.143948  -0.000002
 Sum of Mulliken charges =  -0.00000   1.00000

 Dipole moment (field-independent basis, Debye):
    X=              5.5461    Y=             -1.0185    Z=              3.4646  Tot=              6.6182
 Quadrupole moment (field-independent basis, Debye-Ang):
   XX=           -185.6444   YY=           -167.6610   ZZ=           -150.6494
   XY=             -8.2690   XZ=            -10.4341   YZ=             -5.6647

 Normal termination of Gaussian 16 at Fri Jun 13 11:23:58 2025.
