 Gaussian 16, Revision C.02,
 Gaussian 16:  ES64L-G16RevC.02  7-Dec-2021

 -----------------------------------
 # td=(50-50,nstates=3) ub3lyp/6-31g
 -----------------------------------

 ----------
 [No Title]
 ----------
 Symbolic Z-matrix:
 Charge =  0 Multiplicity = 2

                         Standard orientation:
 ---------------------------------------------------------------------
 Center     Atomic      Atomic             Coordinates (Angstroms)
 Number     Number       Type             X           Y           Z
 ---------------------------------------------------------------------
      1          6           0       -2.799224    2.693685   -0.987292
      2          6           0       -1.368985    2.431175   -0.564409
      3          6           0       -0.388851    3.403847   -0.790978
      4          6           0        0.949508    3.208385   -0.415119
      5          6           0        1.990737    4.275115   -0.676155
      6          6           0        1.292240    1.998463    0.194548
      7          6           0        0.338553    0.992277    0.426723
      8          6           0        0.780816   -0.296189    1.127678
      9          6           0       -1.006262    1.205084    0.052548
     10          1           0       -2.898016    3.689249   -1.430754
     11          1           0       -3.139863    1.956100   -1.723990
     12          1           0       -3.488345    2.625155   -0.137785
     13          1           0       -0.677005    4.338540   -1.266309
     14          1           0        1.626174    5.269789   -0.393322
     15          1           0        2.909656    4.080472   -0.113901
     16          1           0        2.258623    4.320652   -1.740583
     17          1           0        1.074897   -0.056685    2.155751
     18          1           0       -0.063528   -0.985023    1.182044
     19          1           0        2.317510    1.837360    0.513143
     20          6           0        1.945803   -0.999491    0.458996
     21          6           0        1.785191   -1.911469   -0.589534
     22          6           0        3.273784   -0.793341    0.845746
     23          6           0        2.834203   -2.573509   -1.217846
     24          6           0        4.369005   -1.419887    0.261025
     25          6           0        4.140137   -2.321270   -0.783646
     26          1           0        2.622703   -3.266757   -2.021951
     27          1           0        5.365887   -1.201335    0.621931
     28          1           0        4.974920   -2.824365   -1.257724
     29          9           0        0.488222   -2.186596   -1.029363
     30          9           0        3.517243    0.115767    1.879803
     31          6           0       -2.069272    0.183738    0.333577
     32          6           0       -2.276043   -0.849498   -0.549055
     33          6           0       -2.882529    0.292288    1.507133
     34          1           0       -1.673263   -0.988101   -1.435202
     35          6           0       -3.887820   -0.690148    1.713999
     36          1           0       -2.719978    1.093154    2.216785
     37          6           0       -4.077620   -1.716239    0.825739
     38          1           0       -4.528533   -0.637970    2.588521
     39          1           0       -4.834649   -2.480308    0.944162
     40          7           0       -3.282573   -1.812782   -0.335352
     41          6           0       -3.312973   -3.019980   -1.153852
     42          1           0       -2.601391   -3.780786   -0.798373
     43          1           0       -4.318944   -3.449120   -1.139053
     44          1           0       -3.060402   -2.771291   -2.188850
 ---------------------------------------------------------------------

 SCF Done:  E(UB3LYP) =  -1066.42618219     A.U. after   21 cycles

 Excitation energies and oscillator strengths:

 Excited State   1:  2.019-A      1.5467 eV  801.61 nm  f=0.0013  <S**2>=0.769
     86A -> 87A       -0.33331
     86A -> 89A        0.85961
     86A -> 91A       -0.36595
 This state for optimization and/or second-order correction.
 Total Energy, E(TD-HF/TD-DFT) =  -1066.36934248
 Copying the excited state density for this state as the 1-particle RhoCI density.

 Excited State   2:  2.023-A      1.7708 eV  700.17 nm  f=0.0025  <S**2>=0.774
     86A -> 87A        0.93989
     86A -> 89A        0.30205
     86A -> 91A       -0.13541

 Excited State   3:  2.024-A      1.9923 eV  622.33 nm  f=0.0002  <S**2>=0.774
     86A -> 88A        0.99606

 The electronic state is 2-A.
 Alpha  occ. eigenvalues --  -24.70243 -24.70212 -14.36636 -10.28300 -10.28239
 Alpha  occ. eigenvalues --  -10.21858 -10.21734 -10.21197 -10.20619 -10.20608
 Alpha  occ. eigenvalues --  -10.20462 -10.20141 -10.18810 -10.18795 -10.18432
 Alpha  occ. eigenvalues --  -10.18348 -10.18169 -10.18124 -10.17437 -10.16974
 Alpha  occ. eigenvalues --  -10.16750 -10.16681 -10.16219 -10.15810  -1.21091
 Alpha  occ. eigenvalues --   -1.21020  -0.95980  -0.88650  -0.85741  -0.80857
 Alpha  occ. eigenvalues --   -0.80278  -0.77641  -0.76460  -0.76022  -0.74798
 Alpha  occ. eigenvalues --   -0.70907  -0.69681  -0.67793  -0.67245  -0.62878
 Alpha  occ. eigenvalues --   -0.62570  -0.61882  -0.61325  -0.56841  -0.55950
 Alpha  occ. eigenvalues --   -0.54613  -0.52269  -0.51801  -0.49874  -0.48848
 Alpha  occ. eigenvalues --   -0.48457  -0.48039  -0.47474  -0.46515  -0.45653
 Alpha  occ. eigenvalues --   -0.45462  -0.44544  -0.44074  -0.42986  -0.42564
 Alpha  occ. eigenvalues --   -0.42276  -0.41190  -0.40980  -0.40743  -0.40360
 Alpha  occ. eigenvalues --   -0.39800  -0.39572  -0.38959  -0.38532  -0.37596
 Alpha  occ. eigenvalues --   -0.36927  -0.36509  -0.36090  -0.35836  -0.35485
 Alpha  occ. eigenvalues --   -0.35192  -0.32842  -0.32229  -0.31719  -0.27257
 Alpha  occ. eigenvalues --   -0.26160  -0.25754  -0.25383  -0.22655  -0.22257
 Alpha  occ. eigenvalues --   -0.10003
 Alpha virt. eigenvalues --   -0.01784  -0.00948   0.00782   0.01357   0.01714
 Alpha virt. eigenvalues --    0.06151   0.09346   0.11290   0.11468   0.12338
 Alpha virt. eigenvalues --    0.12489   0.12620   0.13238   0.13397   0.13802

  Beta  occ. eigenvalues --  -24.70239 -24.70212 -14.35969 -10.28300 -10.28239
  Beta  occ. eigenvalues --  -10.21858 -10.21767 -10.21197 -10.20619 -10.20608
  Beta  occ. eigenvalues --  -10.20082 -10.19785 -10.18815 -10.18797 -10.18440
  Beta  occ. eigenvalues --  -10.18351 -10.18329 -10.18115 -10.17607 -10.16974
  Beta  occ. eigenvalues --  -10.16747 -10.16679 -10.16212 -10.15125  -1.21086
  Beta  occ. eigenvalues --   -1.21018  -0.94755  -0.88649  -0.85721  -0.80462
  Beta  occ. eigenvalues --   -0.80244  -0.77389  -0.76459  -0.75969  -0.74406
  Beta  occ. eigenvalues --   -0.70474  -0.69673  -0.67615  -0.67154  -0.62873
  Beta  occ. eigenvalues --   -0.62544  -0.61392  -0.60659  -0.56844  -0.55902
  Beta  occ. eigenvalues --   -0.54611  -0.52261  -0.51546  -0.49864  -0.48688
  Beta  occ. eigenvalues --   -0.48346  -0.47681  -0.47416  -0.46437  -0.45244
  Beta  occ. eigenvalues --   -0.44595  -0.44485  -0.44068  -0.42797  -0.42548
  Beta  occ. eigenvalues --   -0.42248  -0.41181  -0.40972  -0.40654  -0.40294
  Beta  occ. eigenvalues --   -0.39745  -0.39553  -0.38930  -0.38522  -0.37572
  Beta  occ. eigenvalues --   -0.36923  -0.36157  -0.35776  -0.35568  -0.35020
  Beta  occ. eigenvalues --   -0.34609  -0.32703  -0.32200  -0.31674  -0.26051
  Beta  occ. eigenvalues --   -0.25753  -0.24359  -0.23799  -0.22622  -0.22174
  Beta virt. eigenvalues --   -0.01813  -0.01232  -0.00930   0.01185   0.01441
  Beta virt. eigenvalues --    0.01987   0.06165   0.09496   0.11299   0.11973
  Beta virt. eigenvalues --    0.12374   0.12628   0.12914   0.13359   0.13720

 Mulliken charges and spin densities:
               1          2
     1  C   -0.469208   0.003694
     2  C    0.119636  -0.004693
     3  C   -0.206519   0.002665
     4  C    0.136931  -0.002415
     5  C   -0.483014   0.000179
     6  C   -0.212547   0.002262
     7  C    0.128076  -0.003820
     8  C   -0.381584   0.001700
     9  C   -0.104636   0.008116
    10  H    0.131808  -0.000402
    11  H    0.152093   0.000568
    12  H    0.158911   0.001212
    13  H    0.112435  -0.000175
    14  H    0.146521  -0.000055
    15  H    0.144363  -0.000012
    16  H    0.151817  -0.000103
    17  H    0.171577   0.000438
    18  H    0.174649  -0.000040
    19  H    0.129257  -0.000186
    20  C    0.076867  -0.000297
    21  C    0.246656   0.000724
    22  C    0.239864   0.000119
    23  C   -0.123538  -0.000002
    24  C   -0.121661  -0.000061
    25  C   -0.134440   0.000101
    26  H    0.151085   0.000008
    27  H    0.153643   0.000001
    28  H    0.144448   0.000016
    29  F   -0.328851   0.000340
    30  F   -0.331892   0.000003
    31  C   -0.053264  -0.157987
    32  C    0.106805   0.273804
    33  C   -0.127334   0.545897
    34  H    0.155621  -0.013097
    35  C   -0.159799  -0.164656
    36  H    0.114927  -0.025609
    37  C    0.101053   0.290135
    38  H    0.121016   0.004295
    39  H    0.132926  -0.014881
    40  N   -0.588375   0.240087
    41  C   -0.241758  -0.025840
    42  H    0.157117   0.028280
    43  H    0.150990   0.004077
    44  H    0.157326   0.005609
 Sum of Mulliken charges =  -0.00000   1.00000

 Dipole moment (field-independent basis, Debye):
    X=              0.6661    Y=             -2.3208    Z=             -1.8201  Tot=              3.0236
 Quadrupole moment (field-independent basis, Debye-Ang):
   XX=           -125.1650   YY=           -127.6240   ZZ=           -138.8304
   XY=              1.3169   XZ=             -3.4763   YZ=              2.6153

 Normal termination of Gaussian 16 at Fri Jun 13 11:23:29 2025.
