 Gaussian 16, Revision C.02,
 Gaussian 16:  ES64L-G16RevC.02  7-Dec-2021

 -----------------------------------
 # td=(50-50,nstates=3) ub3lyp/6-31g
 -----------------------------------

 ----------
 [No Title]
 ----------
 Symbolic Z-matrix:
 Charge =  0 Multiplicity = 2

                         Standard orientation:
 ---------------------------------------------------------------------
 Center     Atomic      Atomic             Coordinates (Angstroms)
 Number     Number       Type             X           Y           Z
 ---------------------------------------------------------------------
      1          6           0        3.522366    5.127204   -0.002248
      2          6           0        3.530931    3.614016    0.000210
      3          6           0        3.522927    2.895845    1.203588
      4          6           0        3.500850    1.493672    1.228494
      5          6           0        3.494077    0.782703    0.004942
      6          6           0        3.487817   -0.718141    0.007269
      7          6           0        4.691317   -1.373389    0.009520
      8          7           0        4.792943   -2.762943    0.022571
      9          6           0        6.103603   -3.410399   -0.073833
     10          6           0        3.621470   -3.510699    0.022893
     11          6           0        2.398946   -2.912384    0.020720
     12          6           0        2.243267   -1.475001    0.010021
     13          6           0        0.984660   -0.831648    0.005990
     14          6           0        3.496838    1.489648   -1.220958
     15          6           0        3.472643    0.756977   -2.546297
     16          6           0        3.518890    2.891890   -1.200768
     17          1           0        4.026785    5.532124    0.881683
     18          1           0        4.020706    5.529199   -0.890939
     19          1           0        2.496040    5.519415    0.000657
     20          1           0        3.531659    3.436947    2.146401
     21          1           0        5.630591   -0.834758    0.006944
     22          1           0        6.840282   -2.841787    0.500034
     23          1           0        6.044499   -4.417512    0.344930
     24          1           0        6.445130   -3.480935   -1.114686
     25          1           0        3.746068   -4.585935    0.030527
     26          1           0        1.523168   -3.548598    0.032425
     27          1           0        4.366163    0.136033   -2.684617
     28          1           0        2.607107    0.087692   -2.616888
     29          1           0        3.422291    1.463420   -3.380182
     30          1           0        3.524545    3.429891   -2.145374
     31          6           0       -0.261373   -1.454987    0.007061
     32          6           0       -1.474953   -0.775529    0.003796
     33          1           0       -0.331519   -2.540542    0.010059
     34          6           0       -2.580024   -0.234725    0.001003
     35          6           0       -3.839545    0.388529   -0.002051
     36          6           0       -5.051322   -0.339068   -0.001750
     37          6           0       -3.964716    1.805153   -0.005529
     38          6           0       -6.298592    0.274079   -0.004668
     39          6           0       -5.204205    2.446626   -0.008501
     40          1           0       -3.052467    2.391604   -0.005802
     41          6           0       -6.380983    1.667433   -0.008020
     42          1           0       -7.206673   -0.323455   -0.004344
     43          1           0       -7.352797    2.150170   -0.010255
     44         16           0       -5.009389   -2.206032    0.002255
     45          1           0       -6.415391   -2.385707    0.002401
     46          8           0       -4.440407   -2.811095    1.423847
     47          8           0       -4.440035   -2.817111   -1.416638
     48          6           0       -5.294319    3.956361   -0.012267
     49          1           0       -4.302114    4.416443   -0.011293
     50          1           0       -5.832294    4.318954   -0.897014
     51          1           0       -5.836010    4.323161    0.868453
     52          6           0        3.480831    0.765333    2.556288
     53          1           0        2.617483    0.093664    2.630381
     54          1           0        4.376351    0.147433    2.695526
     55          1           0        3.429608    1.474419    3.387878
     56          1           0        0.995553    0.254433    0.001911
 ---------------------------------------------------------------------

 SCF Done:  E(UB3LYP) =  -1609.20508532     A.U. after   25 cycles

 Excitation energies and oscillator strengths:

 Excited State   1:  2.054-A      1.9077 eV  649.93 nm  f=0.0990  <S**2>=0.805
    111A ->112A        0.83549
    111A ->114A        0.10557
    111A ->119A        0.10347
    110B ->111B       -0.50540
 This state for optimization and/or second-order correction.
 Total Energy, E(TD-HF/TD-DFT) =  -1609.13497988
 Copying the excited state density for this state as the 1-particle RhoCI density.

 Excited State   2:  2.133-A      2.0573 eV  602.66 nm  f=0.0021  <S**2>=0.887
    110A ->114A       -0.14250
    111A ->114A        0.96832

 Excited State   3:  2.081-A      2.4383 eV  508.48 nm  f=0.1034  <S**2>=0.833
    110A ->113A        0.12805
    111A ->112A        0.32682
    111A ->113A        0.85061
    110B ->111B        0.35326

 The electronic state is 2-A.
 Alpha  occ. eigenvalues --  -89.06257 -19.12336 -19.12332 -14.40559 -10.24666
 Alpha  occ. eigenvalues --  -10.24189 -10.23931 -10.23814 -10.23073 -10.21615
 Alpha  occ. eigenvalues --  -10.21206 -10.20764 -10.20337 -10.19902 -10.19795
 Alpha  occ. eigenvalues --  -10.19656 -10.19635 -10.19630 -10.19400 -10.19179
 Alpha  occ. eigenvalues --  -10.18735 -10.18683 -10.18203 -10.17837 -10.17738
 Alpha  occ. eigenvalues --  -10.17735 -10.17708 -10.17483 -10.17408 -10.17388
 Alpha  occ. eigenvalues --   -8.13069  -6.09171  -6.09136  -6.09042  -1.01886
 Alpha  occ. eigenvalues --   -0.99990  -0.92230  -0.88460  -0.87113  -0.84224
 Alpha  occ. eigenvalues --   -0.80727  -0.80227  -0.79506  -0.78225  -0.78126
 Alpha  occ. eigenvalues --   -0.77172  -0.74703  -0.73494  -0.71359  -0.70178
 Alpha  occ. eigenvalues --   -0.69174  -0.68014  -0.67940  -0.66599  -0.64197
 Alpha  occ. eigenvalues --   -0.63359  -0.60901  -0.58714  -0.57604  -0.57017
 Alpha  occ. eigenvalues --   -0.53975  -0.53802  -0.52511  -0.51122  -0.49821
 Alpha  occ. eigenvalues --   -0.49120  -0.49025  -0.48216  -0.48105  -0.47154
 Alpha  occ. eigenvalues --   -0.46618  -0.45377  -0.44851  -0.43876  -0.43842
 Alpha  occ. eigenvalues --   -0.43244  -0.42936  -0.42588  -0.42293  -0.42054
 Alpha  occ. eigenvalues --   -0.41232  -0.41118  -0.40508  -0.40158  -0.40047
 Alpha  occ. eigenvalues --   -0.39860  -0.39777  -0.39128  -0.38327  -0.38086
 Alpha  occ. eigenvalues --   -0.37663  -0.36583  -0.36542  -0.35812  -0.34256
 Alpha  occ. eigenvalues --   -0.33617  -0.33143  -0.32871  -0.31294  -0.28278
 Alpha  occ. eigenvalues --   -0.27210  -0.27153  -0.26735  -0.26448  -0.25519
 Alpha  occ. eigenvalues --   -0.24673  -0.24577  -0.23638  -0.23386  -0.20822
 Alpha  occ. eigenvalues --   -0.13274
 Alpha virt. eigenvalues --   -0.03879  -0.01952  -0.01512  -0.01348  -0.00155
 Alpha virt. eigenvalues --    0.00492   0.00753   0.01945   0.04704   0.05809
 Alpha virt. eigenvalues --    0.06879   0.06903   0.09804   0.10211   0.10535

  Beta  occ. eigenvalues --  -89.06259 -19.12327 -19.12323 -14.40161 -10.24689
  Beta  occ. eigenvalues --  -10.24067 -10.23810 -10.23628 -10.23138 -10.21672
  Beta  occ. eigenvalues --  -10.21254 -10.20836 -10.19934 -10.19774 -10.19687
  Beta  occ. eigenvalues --  -10.19684 -10.19638 -10.19633 -10.19401 -10.19175
  Beta  occ. eigenvalues --  -10.18680 -10.18372 -10.18268 -10.17845 -10.17836
  Beta  occ. eigenvalues --  -10.17737 -10.17734 -10.17405 -10.17385 -10.17185
  Beta  occ. eigenvalues --   -8.13072  -6.09174  -6.09137  -6.09048  -1.01870
  Beta  occ. eigenvalues --   -0.99281  -0.92208  -0.88338  -0.87044  -0.83870
  Beta  occ. eigenvalues --   -0.80560  -0.80015  -0.79243  -0.78126  -0.77919
  Beta  occ. eigenvalues --   -0.77011  -0.74408  -0.73447  -0.71167  -0.70174
  Beta  occ. eigenvalues --   -0.69010  -0.67940  -0.67936  -0.66025  -0.64111
  Beta  occ. eigenvalues --   -0.63173  -0.60800  -0.58457  -0.57607  -0.56953
  Beta  occ. eigenvalues --   -0.53824  -0.53738  -0.52348  -0.51011  -0.49668
  Beta  occ. eigenvalues --   -0.49013  -0.48647  -0.47966  -0.47845  -0.47069
  Beta  occ. eigenvalues --   -0.46499  -0.45326  -0.44767  -0.43814  -0.43806
  Beta  occ. eigenvalues --   -0.43177  -0.42839  -0.42560  -0.42247  -0.41989
  Beta  occ. eigenvalues --   -0.41221  -0.41096  -0.40448  -0.40036  -0.39847
  Beta  occ. eigenvalues --   -0.39818  -0.39739  -0.38552  -0.38187  -0.37768
  Beta  occ. eigenvalues --   -0.37620  -0.36542  -0.36533  -0.35745  -0.33717
  Beta  occ. eigenvalues --   -0.33134  -0.32851  -0.32794  -0.30125  -0.27327
  Beta  occ. eigenvalues --   -0.26866  -0.26672  -0.26367  -0.26053  -0.25489
  Beta  occ. eigenvalues --   -0.24617  -0.24451  -0.23640  -0.23366  -0.19785
  Beta virt. eigenvalues --   -0.07794  -0.02859  -0.01591  -0.01283  -0.01227
  Beta virt. eigenvalues --   -0.00125   0.00495   0.00760   0.03389   0.04773
  Beta virt. eigenvalues --    0.05926   0.06986   0.07053   0.09880   0.10232

 Mulliken charges and spin densities:
               1          2
     1  C   -0.482833   0.000087
     2  C    0.145052  -0.001116
     3  C   -0.215082   0.000915
     4  C    0.136390  -0.001723
     5  C   -0.122467   0.004404
     6  C   -0.083927  -0.077945
     7  C    0.108851   0.146830
     8  N   -0.592697   0.149410
     9  C   -0.248941  -0.015980
    10  C    0.129973   0.094478
    11  C   -0.194315  -0.033316
    12  C    0.133068   0.309682
    13  C   -0.179091  -0.133861
    14  C    0.136104  -0.001763
    15  C   -0.472813   0.001687
    16  C   -0.215033   0.000904
    17  H    0.145332  -0.000015
    18  H    0.145270  -0.000015
    19  H    0.157333  -0.000056
    20  H    0.116093  -0.000064
    21  H    0.163887  -0.007080
    22  H    0.168856   0.004802
    23  H    0.167417   0.002328
    24  H    0.172474   0.013818
    25  H    0.157641  -0.005111
    26  H    0.152614   0.000009
    27  H    0.144461   0.000217
    28  H    0.167392   0.000229
    29  H    0.140280  -0.000126
    30  H    0.116063  -0.000074
    31  C   -0.011253   0.371380
    32  C   -0.198975  -0.173407
    33  H    0.163040  -0.017067
    34  C   -0.296077   0.242709
    35  C    0.244436  -0.057395
    36  C   -0.243666   0.089084
    37  C   -0.097818   0.084561
    38  C   -0.141603  -0.053128
    39  C    0.106556  -0.045533
    40  H    0.143086  -0.003351
    41  C   -0.135793   0.103680
    42  H    0.150487   0.001648
    43  H    0.131930  -0.004562
    44  S    1.061812  -0.002002
    45  H    0.045175  -0.000860
    46  O   -0.562086   0.002992
    47  O   -0.562065   0.003003
    48  C   -0.485000   0.002520
    49  H    0.151181  -0.000183
    50  H    0.159540  -0.000786
    51  H    0.159515  -0.000783
    52  C   -0.472917   0.001667
    53  H    0.167403   0.000218
    54  H    0.145302   0.000164
    55  H    0.140208  -0.000124
    56  H    0.140227   0.003999
 Sum of Mulliken charges =  -0.00000   1.00000

 Dipole moment (field-independent basis, Debye):
    X=              6.4562    Y=              3.5327    Z=             -0.0773  Tot=              7.3599
 Quadrupole moment (field-independent basis, Debye-Ang):
   XX=           -125.3789   YY=           -170.0502   ZZ=           -193.2713
   XY=            -43.9007   XZ=             -0.2857   YZ=              0.1400

 Normal termination of Gaussian 16 at Fri Jun 13 11:25:41 2025.
