 Gaussian 16, Revision C.02,
 Gaussian 16:  ES64L-G16RevC.02  7-Dec-2021

 ----------------------------------
 # td=(50-50,nstates=3) b3lyp/6-31g
 ----------------------------------

 ----------
 [No Title]
 ----------
 Symbolic Z-matrix:
 Charge =  1 Multiplicity = 1

                         Standard orientation:
 ---------------------------------------------------------------------
 Center     Atomic      Atomic             Coordinates (Angstroms)
 Number     Number       Type             X           Y           Z
 ---------------------------------------------------------------------
      1          6           0        0.053197    3.420308   -0.058819
      2          6           0       -1.259341    3.295572   -0.542586
      3          6           0       -1.969902    2.090025   -0.476612
      4          6           0       -1.345093    0.942036    0.080353
      5          6           0       -0.020219    1.057405    0.560861
      6          6           0        0.659518    2.285159    0.490229
      7          1           0       -1.747026    4.165953   -0.973449
      8          1           0        1.671399    2.364585    0.880692
      9          6           0        3.588891   -0.687876   -1.187083
     10          6           0        2.343047   -0.331663   -0.711327
     11          6           0        2.023822   -0.480047    0.658554
     12          6           0        3.036514   -0.996257    1.496366
     13          6           0        4.274494   -1.337992    0.985056
     14          1           0        3.866778   -0.590186   -2.227981
     15          1           0        1.612310    0.080992   -1.394741
     16          1           0        2.856564   -1.124463    2.556896
     17          1           0        5.072081   -1.731049    1.600867
     18          6           0       -2.106916   -0.336572    0.240959
     19          6           0       -2.212419   -1.232255   -0.773374
     20          6           0       -3.544727   -2.732782    0.536925
     21          6           0       -3.507919   -1.910520    1.600340
     22          6           0       -2.840475   -0.551575    1.566944
     23          1           0       -1.729228   -1.056840   -1.729386
     24          1           0       -4.046834   -3.692547    0.564595
     25          1           0       -4.004281   -2.214570    2.515536
     26          1           0       -2.141452   -0.437198    2.414373
     27          7           0        4.546812   -1.185722   -0.345322
     28          7           0       -2.937951   -2.414979   -0.689959
     29          6           0        0.658818   -0.151089    1.191843
     30          1           0        0.716961   -0.044730    2.283131
     31          1           0        0.006217   -1.023913    1.003133
     32          6           0        0.774970    4.747997   -0.117327
     33          1           0        0.772670    5.161306   -1.132898
     34          1           0        0.292910    5.489882    0.531438
     35          1           0        1.816407    4.654290    0.205767
     36          6           0       -3.387910    2.027967   -1.003113
     37          1           0       -3.738712    3.022219   -1.293338
     38          1           0       -3.466850    1.375494   -1.880596
     39          1           0       -4.081778    1.631683   -0.253421
     40          6           0       -2.945033   -3.382514   -1.787644
     41          1           0       -2.190311   -4.170645   -1.654755
     42          1           0       -3.928764   -3.854744   -1.861888
     43          1           0       -2.748645   -2.867277   -2.731128
     44          6           0        5.871813   -1.590240   -0.889706
     45          1           0        6.615732   -1.544587   -0.094805
     46          1           0        5.815317   -2.608520   -1.282402
     47          1           0        6.159740   -0.902746   -1.685386
     48          1           0       -3.584002    0.252000    1.721674
 ---------------------------------------------------------------------

 SCF Done:  E(RB3LYP) =  -924.333878843     A.U. after   19 cycles

 Excitation energies and oscillator strengths:

 Excited State   1:      Triplet-A      0.5782 eV 2144.30 nm  f=0.0000  <S**2>=2.000
      82 -> 83         0.70949
 This state for optimization and/or second-order correction.
 Total Energy, E(TD-HF/TD-DFT) =  -924.312630278
 Copying the excited state density for this state as the 1-particle RhoCI density.

 Excited State   2:      Singlet-A      0.9395 eV 1319.66 nm  f=0.0707  <S**2>=0.000
      82 -> 83         0.71387
      82 <- 83        -0.10552

 Excited State   3:      Triplet-A      1.6349 eV  758.37 nm  f=0.0000  <S**2>=2.000
      82 -> 84         0.70632

 Excited State   4:      Singlet-A      1.6661 eV  744.17 nm  f=0.0015  <S**2>=0.000
      82 -> 84         0.70653

 Excited State   5:      Triplet-A      2.3483 eV  527.98 nm  f=0.0000  <S**2>=2.000
      81 -> 83         0.70540

 Excited State   6:      Singlet-A      2.3636 eV  524.55 nm  f=0.0009  <S**2>=0.000
      81 -> 83         0.70643

 The electronic state is 1-A.
 Alpha  occ. eigenvalues --  -14.58966 -14.44782 -10.40956 -10.40815 -10.38052
 Alpha  occ. eigenvalues --  -10.37660 -10.35911 -10.35693 -10.31006 -10.30622
 Alpha  occ. eigenvalues --  -10.30072 -10.29331 -10.29148 -10.28066 -10.28058
 Alpha  occ. eigenvalues --  -10.28016 -10.27147 -10.26960 -10.26815 -10.26248
 Alpha  occ. eigenvalues --  -10.25513 -10.25260 -10.24896  -1.17459  -1.04560
 Alpha  occ. eigenvalues --   -1.00296  -0.95658  -0.95151  -0.90933  -0.89656
 Alpha  occ. eigenvalues --   -0.86893  -0.86493  -0.84258  -0.82414  -0.81805
 Alpha  occ. eigenvalues --   -0.79958  -0.77473  -0.76809  -0.76391  -0.71898
 Alpha  occ. eigenvalues --   -0.70487  -0.69677  -0.68006  -0.66255  -0.65432
 Alpha  occ. eigenvalues --   -0.63738  -0.63394  -0.61560  -0.60766  -0.60188
 Alpha  occ. eigenvalues --   -0.58542  -0.57828  -0.57029  -0.56421  -0.55070
 Alpha  occ. eigenvalues --   -0.54613  -0.53938  -0.53724  -0.52765  -0.51653
 Alpha  occ. eigenvalues --   -0.51397  -0.51158  -0.50219  -0.49781  -0.49453
 Alpha  occ. eigenvalues --   -0.49269  -0.48774  -0.48383  -0.47283  -0.45439
 Alpha  occ. eigenvalues --   -0.44830  -0.44439  -0.43837  -0.43319  -0.42616
 Alpha  occ. eigenvalues --   -0.42131  -0.41958  -0.40501  -0.34375  -0.32771
 Alpha  occ. eigenvalues --   -0.31983  -0.25496
 Alpha virt. eigenvalues --   -0.21164  -0.17608  -0.09477  -0.08372  -0.07221
 Alpha virt. eigenvalues --   -0.06405  -0.04076  -0.02716  -0.02381  -0.01567
 Alpha virt. eigenvalues --   -0.00561  -0.00173   0.01048   0.02065   0.02188

 Mulliken charges:
               1
     1  C    0.127118
     2  C   -0.192536
     3  C    0.107410
     4  C   -0.088956
     5  C    0.087559
     6  C   -0.201770
     7  H    0.138479
     8  H    0.113160
     9  C    0.157797
    10  C   -0.148471
    11  C    0.156118
    12  C   -0.178745
    13  C    0.166068
    14  H    0.219159
    15  H    0.208530
    16  H    0.200160
    17  H    0.220758
    18  C   -0.029448
    19  C    0.126132
    20  C    0.133952
    21  C   -0.149756
    22  C   -0.306029
    23  H    0.140139
    24  H    0.153750
    25  H    0.134033
    26  H    0.132493
    27  N   -0.567553
    28  N   -0.604016
    29  C   -0.412273
    30  H    0.180965
    31  H    0.203515
    32  C   -0.483556
    33  H    0.162351
    34  H    0.173533
    35  H    0.141993
    36  C   -0.472293
    37  H    0.153485
    38  H    0.158169
    39  H    0.165862
    40  C   -0.248276
    41  H    0.157361
    42  H    0.175583
    43  H    0.160581
    44  C   -0.271484
    45  H    0.207111
    46  H    0.224431
    47  H    0.210538
    48  H    0.156873
 Sum of Mulliken charges =   1.00000

 Dipole moment (field-independent basis, Debye):
    X=             12.8943    Y=             -5.0031    Z=             -1.8173  Tot=             13.9497
 Quadrupole moment (field-independent basis, Debye-Ang):
   XX=            -43.7388   YY=           -108.9018   ZZ=           -118.4536
   XY=            -14.1169   XZ=             -0.9947   YZ=              1.6891

 Normal termination of Gaussian 16 at Fri Jun 13 11:25:11 2025.
