 Gaussian 16, Revision C.02,
 Gaussian 16:  ES64L-G16RevC.02  7-Dec-2021

 ----------------------------------
 # td=(50-50,nstates=3) b3lyp/6-31g
 ----------------------------------

 ----------
 [No Title]
 ----------
 Symbolic Z-matrix:
 Charge =  0 Multiplicity = 1

                         Standard orientation:
 ---------------------------------------------------------------------
 Center     Atomic      Atomic             Coordinates (Angstroms)
 Number     Number       Type             X           Y           Z
 ---------------------------------------------------------------------
      1          6           0        2.234850    4.188539   -0.319039
      2          6           0        1.189025    3.100552   -0.208762
      3          6           0       -0.125829    3.404139    0.178448
      4          6           0       -1.109795    2.416018    0.302956
      5          6           0       -2.514524    2.808462    0.711850
      6          6           0       -0.782840    1.060900    0.029185
      7          6           0       -1.818967   -0.007049    0.197748
      8          6           0       -2.617888   -0.371391   -0.830267
      9          7           0       -3.581328   -1.383355   -0.748351
     10          6           0       -4.556057   -1.573498   -1.816350
     11          6           0       -3.704177   -2.073156    0.467626
     12          6           0       -2.958491   -1.784585    1.549087
     13          6           0       -1.939644   -0.662538    1.575640
     14          6           0        0.537904    0.749641   -0.362868
     15          6           0        0.954874   -0.682734   -0.686692
     16          6           0        1.877160   -1.272640    0.360116
     17          8           0        1.572475   -1.427839    1.549796
     18          6           0        3.271923   -1.712370   -0.114015
     19          9           0        3.063367   -2.647501   -1.167871
     20          9           0        3.881785   -0.578693   -0.732620
     21          6           0        4.200736   -2.290722    0.911376
     22          6           0        1.501921    1.765498   -0.479442
     23          1           0        1.879012    5.027161   -0.929985
     24          1           0        2.493117    4.595788    0.667498
     25          1           0        3.156520    3.810085   -0.772019
     26          1           0       -0.392022    4.437754    0.387210
     27          1           0       -2.569044    3.878452    0.935588
     28          1           0       -3.241331    2.590588   -0.079368
     29          1           0       -2.846046    2.261081    1.602020
     30          1           0       -2.535074    0.102466   -1.803372
     31          1           0       -4.095828   -1.342730   -2.782053
     32          1           0       -4.880506   -2.618589   -1.839019
     33          1           0       -5.447423   -0.938377   -1.698774
     34          1           0       -4.432777   -2.876642    0.464668
     35          1           0       -3.080189   -2.386286    2.444177
     36          1           0       -2.209769    0.095514    2.335179
     37          1           0       -0.951987   -1.032326    1.894028
     38          1           0        0.061670   -1.316795   -0.729693
     39          1           0        1.439073   -0.725850   -1.665704
     40          1           0        4.387119   -1.560088    1.700636
     41          1           0        3.751941   -3.177294    1.362961
     42          1           0        5.144587   -2.561620    0.432963
     43          1           0        2.510993    1.501271   -0.782012
 ---------------------------------------------------------------------

 SCF Done:  E(RB3LYP) =  -1027.94429873     A.U. after   15 cycles

 Excitation energies and oscillator strengths:

 Excited State   1:      Triplet-A      2.1624 eV  573.37 nm  f=0.0000  <S**2>=2.000
      81 -> 82         0.70468
 This state for optimization and/or second-order correction.
 Total Energy, E(TD-HF/TD-DFT) =  -1027.86483326
 Copying the excited state density for this state as the 1-particle RhoCI density.

 Excited State   2:      Singlet-A      2.2044 eV  562.45 nm  f=0.0085  <S**2>=0.000
      81 -> 82         0.70654

 Excited State   3:      Triplet-A      2.8416 eV  436.32 nm  f=0.0000  <S**2>=2.000
      78 -> 86         0.14487
      81 -> 83        -0.21796
      81 -> 84        -0.11035
      81 -> 85         0.64787

 Excited State   4:      Triplet-A      3.0963 eV  400.43 nm  f=0.0000  <S**2>=2.000
      77 -> 82         0.56474
      79 -> 82         0.39602
      80 -> 82        -0.10915

 Excited State   5:      Singlet-A      3.6034 eV  344.08 nm  f=0.0036  <S**2>=0.000
      77 -> 82         0.38228
      79 -> 82         0.54104
      80 -> 82        -0.23724

 Excited State   6:      Singlet-A      3.7829 eV  327.75 nm  f=0.0047  <S**2>=0.000
      77 -> 82         0.10706
      79 -> 82         0.21311
      80 -> 82         0.66450

 The electronic state is 1-A.
 Alpha  occ. eigenvalues --  -24.70540 -24.70333 -19.17047 -14.35602 -10.36159
 Alpha  occ. eigenvalues --  -10.30354 -10.22046 -10.21105 -10.20795 -10.19822
 Alpha  occ. eigenvalues --  -10.19570 -10.19540 -10.18977 -10.18882 -10.18623
 Alpha  occ. eigenvalues --  -10.17631 -10.17375 -10.17339 -10.17321 -10.17314
 Alpha  occ. eigenvalues --  -10.16929 -10.16484  -1.23964  -1.18569  -1.07735
 Alpha  occ. eigenvalues --   -0.95522  -0.86313  -0.80603  -0.80143  -0.78968
 Alpha  occ. eigenvalues --   -0.77662  -0.75437  -0.73079  -0.71289  -0.68717
 Alpha  occ. eigenvalues --   -0.67889  -0.66910  -0.63019  -0.61385  -0.58900
 Alpha  occ. eigenvalues --   -0.56588  -0.56314  -0.53849  -0.51940  -0.50847
 Alpha  occ. eigenvalues --   -0.50437  -0.49455  -0.48333  -0.47690  -0.45730
 Alpha  occ. eigenvalues --   -0.45267  -0.44532  -0.44207  -0.43102  -0.42625
 Alpha  occ. eigenvalues --   -0.42363  -0.41954  -0.41727  -0.41380  -0.41127
 Alpha  occ. eigenvalues --   -0.40665  -0.40495  -0.40163  -0.39613  -0.39192
 Alpha  occ. eigenvalues --   -0.38853  -0.38768  -0.37761  -0.37248  -0.36256
 Alpha  occ. eigenvalues --   -0.35697  -0.35014  -0.33688  -0.33037  -0.32815
 Alpha  occ. eigenvalues --   -0.31459  -0.27382  -0.25449  -0.23251  -0.22721
 Alpha  occ. eigenvalues --   -0.16562
 Alpha virt. eigenvalues --   -0.06310   0.00442   0.00862   0.01781   0.07193
 Alpha virt. eigenvalues --    0.08824   0.09581   0.10915   0.11041   0.11412
 Alpha virt. eigenvalues --    0.11539   0.12375   0.12690   0.13078   0.13995

 Mulliken charges:
               1
     1  C   -0.483301
     2  C    0.132431
     3  C   -0.197164
     4  C    0.105136
     5  C   -0.471177
     6  C   -0.079380
     7  C   -0.023701
     8  C    0.120648
     9  N   -0.606415
    10  C   -0.239639
    11  C    0.132612
    12  C   -0.150812
    13  C   -0.320009
    14  C    0.105542
    15  C   -0.398830
    16  C    0.362795
    17  O   -0.390400
    18  C    0.479858
    19  F   -0.314181
    20  F   -0.309778
    21  C   -0.428166
    22  C   -0.206615
    23  H    0.148299
    24  H    0.153974
    25  H    0.145573
    26  H    0.114535
    27  H    0.135153
    28  H    0.151428
    29  H    0.156543
    30  H    0.137608
    31  H    0.152419
    32  H    0.152314
    33  H    0.149932
    34  H    0.129749
    35  H    0.110961
    36  H    0.132163
    37  H    0.170665
    38  H    0.193724
    39  H    0.177854
    40  H    0.178968
    41  H    0.178860
    42  H    0.174194
    43  H    0.135630
 Sum of Mulliken charges =  -0.00000

 Dipole moment (field-independent basis, Debye):
    X=             -1.4229    Y=             -0.0165    Z=             -1.0059  Tot=              1.7426
 Quadrupole moment (field-independent basis, Debye-Ang):
   XX=           -113.9094   YY=           -122.3709   ZZ=           -130.9002
   XY=              2.8202   XZ=              9.9193   YZ=             -0.0083

 Normal termination of Gaussian 16 at Fri Jun 13 11:25:35 2025.
