 Gaussian 16, Revision C.02,
 Gaussian 16:  ES64L-G16RevC.02  7-Dec-2021

 ----------------------------------
 # td=(50-50,nstates=3) b3lyp/6-31g
 ----------------------------------

 ----------
 [No Title]
 ----------
 Symbolic Z-matrix:
 Charge =  0 Multiplicity = 1

                         Standard orientation:
 ---------------------------------------------------------------------
 Center     Atomic      Atomic             Coordinates (Angstroms)
 Number     Number       Type             X           Y           Z
 ---------------------------------------------------------------------
      1          6           0        1.218411    4.954117   -0.340624
      2          6           0        1.404550    3.462538   -0.166931
      3          6           0        2.660078    2.866354   -0.358757
      4          6           0        2.858305    1.487605   -0.218642
      5          6           0        4.240071    0.916852   -0.461439
      6          6           0        1.761781    0.648928    0.123166
      7          6           0        1.964879   -0.822726    0.301386
      8          6           0        1.488356   -1.697256   -0.615919
      9          7           0        1.664050   -3.081433   -0.533335
     10          6           0        0.985047   -3.976121   -1.465373
     11          6           0        2.367437   -3.592156    0.564772
     12          6           0        2.871287   -2.809779    1.536660
     13          6           0        2.709771   -1.302756    1.549563
     14          6           0        0.492315    1.242738    0.314513
     15          6           0       -0.728560    0.426257    0.696000
     16          6           0       -1.631380    0.055843   -0.476722
     17          8           0       -1.166630   -0.175913   -1.616050
     18          6           0       -3.077290   -0.080849   -0.256156
     19          6           0       -4.004291   -0.469906   -1.195972
     20          6           0       -5.346058   -0.533208   -0.712852
     21          6           0       -5.468782   -0.194829    0.608492
     22         16           0       -3.892155    0.233265    1.343147
     23          6           0        0.333529    2.631004    0.170451
     24          1           0        1.985193    5.520996    0.201165
     25          1           0        1.288671    5.245184   -1.397316
     26          1           0        0.239040    5.278861    0.025511
     27          1           0        3.507066    3.491272   -0.633606
     28          1           0        4.827950    1.582328   -1.101988
     29          1           0        4.800066    0.790082    0.475102
     30          1           0        4.186130   -0.065316   -0.941127
     31          1           0        0.929617   -1.348057   -1.476570
     32          1           0        0.842412   -3.466791   -2.422053
     33          1           0        1.597554   -4.866498   -1.641565
     34          1           0       -0.000509   -4.300576   -1.098832
     35          1           0        2.491959   -4.669688    0.569081
     36          1           0        3.429838   -3.272329    2.344377
     37          1           0        2.170753   -0.971928    2.457404
     38          1           0        3.695545   -0.812547    1.626295
     39          1           0       -0.414230   -0.522883    1.152988
     40          1           0       -1.310350    0.966544    1.451267
     41          1           0       -3.706100   -0.700029   -2.210783
     42          1           0       -6.190214   -0.819616   -1.327643
     43          1           0       -6.358413   -0.158845    1.218307
     44          1           0       -0.649556    3.069027    0.327676
 ---------------------------------------------------------------------

 SCF Done:  E(RB3LYP) =  -1302.64178659     A.U. after   16 cycles

 Excitation energies and oscillator strengths:

 Excited State   1:      Triplet-A      1.8712 eV  662.58 nm  f=0.0000  <S**2>=2.000
      86 -> 87         0.70570
 This state for optimization and/or second-order correction.
 Total Energy, E(TD-HF/TD-DFT) =  -1302.57302053
 Copying the excited state density for this state as the 1-particle RhoCI density.

 Excited State   2:      Singlet-A      1.8925 eV  655.12 nm  f=0.0076  <S**2>=0.000
      86 -> 87         0.70628

 Excited State   3:      Triplet-A      2.6754 eV  463.43 nm  f=0.0000  <S**2>=2.000
      81 -> 87         0.12422
      82 -> 87         0.59014
      83 -> 87         0.32401

 Excited State   4:      Triplet-A      2.8314 eV  437.89 nm  f=0.0000  <S**2>=2.000
      83 -> 94        -0.11215
      86 -> 88         0.25715
      86 -> 89        -0.39518
      86 -> 90        -0.20614
      86 -> 92         0.46032

 Excited State   5:      Singlet-A      3.3551 eV  369.54 nm  f=0.0001  <S**2>=0.000
      81 -> 87         0.40256
      82 -> 87        -0.16183
      83 -> 87         0.12435
      84 -> 87         0.53442

 Excited State   6:      Singlet-A      3.4595 eV  358.39 nm  f=0.0003  <S**2>=0.000
      85 -> 87         0.70364

 The electronic state is 1-A.
 Alpha  occ. eigenvalues --  -88.90878 -19.13685 -14.35114 -10.28568 -10.23924
 Alpha  occ. eigenvalues --  -10.23462 -10.21341 -10.21092 -10.20999 -10.20516
 Alpha  occ. eigenvalues --  -10.19930 -10.18894 -10.18564 -10.18241 -10.18222
 Alpha  occ. eigenvalues --  -10.17886 -10.17516 -10.16974 -10.16847 -10.16814
 Alpha  occ. eigenvalues --  -10.16645 -10.16255 -10.16244  -7.98698  -5.95026
 Alpha  occ. eigenvalues --   -5.94631  -5.94151  -1.04287  -0.95006  -0.89295
 Alpha  occ. eigenvalues --   -0.85549  -0.80030  -0.78857  -0.77142  -0.75887
 Alpha  occ. eigenvalues --   -0.75192  -0.74614  -0.71139  -0.70758  -0.67845
 Alpha  occ. eigenvalues --   -0.67350  -0.62944  -0.62519  -0.60716  -0.58078
 Alpha  occ. eigenvalues --   -0.55948  -0.55690  -0.53535  -0.51264  -0.49859
 Alpha  occ. eigenvalues --   -0.48848  -0.48083  -0.47032  -0.45490  -0.44858
 Alpha  occ. eigenvalues --   -0.44653  -0.43787  -0.43187  -0.42142  -0.41650
 Alpha  occ. eigenvalues --   -0.41330  -0.41088  -0.40828  -0.40185  -0.39911
 Alpha  occ. eigenvalues --   -0.39487  -0.39198  -0.39003  -0.38649  -0.38364
 Alpha  occ. eigenvalues --   -0.36522  -0.35543  -0.35356  -0.34953  -0.34022
 Alpha  occ. eigenvalues --   -0.33100  -0.32537  -0.32130  -0.30941  -0.26902
 Alpha  occ. eigenvalues --   -0.25545  -0.25236  -0.24892  -0.22551  -0.22013
 Alpha  occ. eigenvalues --   -0.16065
 Alpha virt. eigenvalues --   -0.07234   0.00591   0.00703   0.01730   0.02372
 Alpha virt. eigenvalues --    0.02937   0.07002   0.07827   0.08313   0.09732
 Alpha virt. eigenvalues --    0.10483   0.11033   0.11601   0.12988   0.13149

 Mulliken charges:
               1
     1  C   -0.482392
     2  C    0.132201
     3  C   -0.197334
     4  C    0.097270
     5  C   -0.477085
     6  C   -0.054164
     7  C   -0.037782
     8  C    0.109187
     9  N   -0.610514
    10  C   -0.238652
    11  C    0.136260
    12  C   -0.151660
    13  C   -0.307516
    14  C    0.127240
    15  C   -0.450023
    16  C    0.380738
    17  O   -0.442306
    18  C   -0.367304
    19  C   -0.039496
    20  C   -0.054416
    21  C   -0.458179
    22  S    0.460511
    23  C   -0.194674
    24  H    0.146525
    25  H    0.154091
    26  H    0.140454
    27  H    0.111280
    28  H    0.136716
    29  H    0.150634
    30  H    0.158502
    31  H    0.185054
    32  H    0.161931
    33  H    0.148153
    34  H    0.148838
    35  H    0.128995
    36  H    0.106813
    37  H    0.129644
    38  H    0.134775
    39  H    0.193081
    40  H    0.161610
    41  H    0.178156
    42  H    0.154121
    43  H    0.176738
    44  H    0.113979
 Sum of Mulliken charges =  -0.00000

 Dipole moment (field-independent basis, Debye):
    X=             -2.6641    Y=             -1.2878    Z=              0.3934  Tot=              2.9850
 Quadrupole moment (field-independent basis, Debye-Ang):
   XX=           -121.8282   YY=           -130.6003   ZZ=           -144.0644
   XY=              2.1762   XZ=             -0.4294   YZ=              3.7113

 Normal termination of Gaussian 16 at Fri Jun 13 11:27:00 2025.
