 Gaussian 16, Revision C.02,
 Gaussian 16:  ES64L-G16RevC.02  7-Dec-2021

 ----------------------------------
 # td=(50-50,nstates=3) b3lyp/6-31g
 ----------------------------------

 ----------
 [No Title]
 ----------
 Symbolic Z-matrix:
 Charge =  0 Multiplicity = 1

                         Standard orientation:
 ---------------------------------------------------------------------
 Center     Atomic      Atomic             Coordinates (Angstroms)
 Number     Number       Type             X           Y           Z
 ---------------------------------------------------------------------
      1          6           0        3.367110   -4.286451   -0.354127
      2          6           0        2.918663   -2.842094   -0.308715
      3          6           0        3.542050   -1.869585   -1.103118
      4          6           0        3.157977   -0.523252   -1.064990
      5          6           0        3.881921    0.475294   -1.944660
      6          6           0        2.107441   -0.114210   -0.200107
      7          6           0        1.671837    1.318912   -0.189435
      8          6           0        2.067426    2.166372    0.788568
      9          7           0        1.636776    3.496556    0.883132
     10          6           0        2.020586    4.312946    2.033037
     11          6           0        0.573062    3.890426    0.058034
     12          6           0        0.121094    3.125319   -0.954228
     13          6           0        0.790456    1.819753   -1.337344
     14          6           0        1.473954   -1.090599    0.610198
     15          6           0        0.341884   -0.728961    1.580028
     16          6           0       -1.053087   -0.846613    0.987218
     17          6           0       -1.726667    0.243681    0.481957
     18          6           0       -3.012672    0.039368   -0.081245
     19          6           0       -3.640259   -1.248323   -0.128796
     20          6           0       -2.952384   -2.371352    0.416693
     21          6           0       -1.716312   -2.129494    0.940045
     22          9           0       -1.029266   -3.201504    1.504981
     23          7           0       -4.849752   -1.217893   -0.702009
     24          8           0       -5.074991    0.124611   -1.068207
     25          7           0       -3.831362    0.943778   -0.642470
     26          8           0       -3.790604    2.171827   -0.868523
     27          6           0        1.887327   -2.431422    0.542224
     28          1           0        3.492399   -4.634928   -1.386073
     29          1           0        4.332946   -4.421398    0.151252
     30          1           0        2.643379   -4.943804    0.137944
     31          1           0        4.352516   -2.164154   -1.765787
     32          1           0        4.829087    0.061500   -2.304514
     33          1           0        3.286906    0.744207   -2.827374
     34          1           0        4.094380    1.404951   -1.407127
     35          1           0        2.734024    1.842156    1.581259
     36          1           0        3.058199    4.100769    2.305038
     37          1           0        1.953042    5.371986    1.769780
     38          1           0        1.385583    4.132590    2.914164
     39          1           0        0.124066    4.845266    0.307654
     40          1           0       -0.729178    3.464654   -1.536156
     41          1           0        0.038961    1.056759   -1.590619
     42          1           0        1.387527    1.943044   -2.260038
     43          1           0        0.410656   -1.385167    2.453584
     44          1           0        0.474371    0.297163    1.926866
     45          1           0       -1.292209    1.236698    0.498098
     46          1           0       -3.393458   -3.358161    0.420329
     47          1           0        1.386880   -3.167493    1.162732
 ---------------------------------------------------------------------

 SCF Done:  E(RB3LYP) =  -1226.30748239     A.U. after   19 cycles

 Excitation energies and oscillator strengths:

 Excited State   1:      Triplet-A      0.9123 eV 1359.00 nm  f=0.0000  <S**2>=2.000
      89 -> 99        -0.10273
      93 -> 97        -0.14095
      94 -> 97         0.18152
      95 -> 97         0.73003
      95 <- 97         0.32099
 This state for optimization and/or second-order correction.
 Total Energy, E(TD-HF/TD-DFT) =  -1226.27395515
 Copying the excited state density for this state as the 1-particle RhoCI density.

 Excited State   2:      Triplet-A      1.4366 eV  863.06 nm  f=0.0000  <S**2>=2.000
      96 -> 97         0.70601

 Excited State   3:      Singlet-A      1.4415 eV  860.11 nm  f=0.0008  <S**2>=0.000
      96 -> 97         0.70672

 Excited State   4:      Triplet-A      2.8873 eV  429.42 nm  f=0.0000  <S**2>=2.000
      92 ->104         0.13268
      94 -> 97        -0.12910
      96 -> 99         0.12191
      96 ->100        -0.14432
      96 ->101         0.46438
      96 ->103         0.43766

 Excited State   5:      Singlet-A      2.9223 eV  424.27 nm  f=0.0005  <S**2>=0.000
      94 -> 97         0.65904
      95 -> 97        -0.24723

 Excited State   6:      Singlet-A      3.0877 eV  401.55 nm  f=0.0243  <S**2>=0.000
      93 -> 97         0.49520
      94 -> 97         0.21389
      95 -> 97         0.44686

 The electronic state is 1-A.
 Alpha  occ. eigenvalues --  -24.72193 -19.26767 -19.19736 -14.53633 -14.41798
 Alpha  occ. eigenvalues --  -14.36725 -10.30804 -10.27695 -10.26981 -10.24146
 Alpha  occ. eigenvalues --  -10.23223 -10.23106 -10.22805 -10.22049 -10.21873
 Alpha  occ. eigenvalues --  -10.20348 -10.20075 -10.19578 -10.19417 -10.19397
 Alpha  occ. eigenvalues --  -10.18792 -10.18692 -10.17872 -10.17812 -10.17804
 Alpha  occ. eigenvalues --  -10.17483 -10.17452  -1.23184  -1.20242  -1.12104
 Alpha  occ. eigenvalues --   -0.96610  -0.93449  -0.89099  -0.87196  -0.85663
 Alpha  occ. eigenvalues --   -0.81513  -0.80362  -0.78483  -0.77775  -0.76085
 Alpha  occ. eigenvalues --   -0.72782  -0.72129  -0.69277  -0.68619  -0.67903
 Alpha  occ. eigenvalues --   -0.65561  -0.64009  -0.63229  -0.62065  -0.58339
 Alpha  occ. eigenvalues --   -0.57058  -0.56683  -0.54977  -0.52911  -0.52823
 Alpha  occ. eigenvalues --   -0.52534  -0.50497  -0.49897  -0.48989  -0.48467
 Alpha  occ. eigenvalues --   -0.48025  -0.47631  -0.46455  -0.46225  -0.45491
 Alpha  occ. eigenvalues --   -0.44227  -0.43690  -0.43402  -0.42479  -0.42278
 Alpha  occ. eigenvalues --   -0.42197  -0.41572  -0.41360  -0.41189  -0.40916
 Alpha  occ. eigenvalues --   -0.40389  -0.40293  -0.39532  -0.38951  -0.38302
 Alpha  occ. eigenvalues --   -0.36966  -0.36719  -0.36647  -0.35718  -0.34644
 Alpha  occ. eigenvalues --   -0.34088  -0.33410  -0.32402  -0.30631  -0.29362
 Alpha  occ. eigenvalues --   -0.29049  -0.26410  -0.24027  -0.23246  -0.22936
 Alpha  occ. eigenvalues --   -0.17888
 Alpha virt. eigenvalues --   -0.10673  -0.02453  -0.01502  -0.01156  -0.00455
 Alpha virt. eigenvalues --    0.00483   0.01369   0.05372   0.06469   0.08057
 Alpha virt. eigenvalues --    0.08596   0.10331   0.10788   0.11369   0.11648

 Mulliken charges:
               1
     1  C   -0.483027
     2  C    0.134819
     3  C   -0.198411
     4  C    0.105564
     5  C   -0.476070
     6  C   -0.075259
     7  C   -0.026240
     8  C    0.114306
     9  N   -0.592246
    10  C   -0.245777
    11  C    0.125691
    12  C   -0.169174
    13  C   -0.310077
    14  C    0.108149
    15  C   -0.400888
    16  C    0.073241
    17  C   -0.071605
    18  C    0.424850
    19  C    0.096854
    20  C   -0.065783
    21  C    0.259655
    22  F   -0.318523
    23  N   -0.174500
    24  O   -0.200848
    25  N   -0.110599
    26  O   -0.335850
    27  C   -0.212459
    28  H    0.149629
    29  H    0.154545
    30  H    0.146684
    31  H    0.116594
    32  H    0.139138
    33  H    0.155637
    34  H    0.155322
    35  H    0.143096
    36  H    0.158314
    37  H    0.159431
    38  H    0.149270
    39  H    0.140772
    40  H    0.133802
    41  H    0.135433
    42  H    0.145534
    43  H    0.162651
    44  H    0.159312
    45  H    0.199661
    46  H    0.184618
    47  H    0.134765
 Sum of Mulliken charges =  -0.00000

 Dipole moment (field-independent basis, Debye):
    X=              5.0763    Y=              0.4772    Z=              2.8016  Tot=              5.8177
 Quadrupole moment (field-independent basis, Debye-Ang):
   XX=           -177.2764   YY=           -146.2243   ZZ=           -153.0357
   XY=              6.9792   XZ=             -6.8546   YZ=              8.7743

 Normal termination of Gaussian 16 at Fri Jun 13 11:29:13 2025.
