 Gaussian 16, Revision C.02,
 Gaussian 16:  ES64L-G16RevC.02  7-Dec-2021

 ----------------------------------
 # td=(50-50,nstates=3) b3lyp/6-31g
 ----------------------------------

 ----------
 [No Title]
 ----------
 Symbolic Z-matrix:
 Charge =  0 Multiplicity = 1

                         Standard orientation:
 ---------------------------------------------------------------------
 Center     Atomic      Atomic             Coordinates (Angstroms)
 Number     Number       Type             X           Y           Z
 ---------------------------------------------------------------------
      1          6           0       -6.298465   -1.366675   -2.237376
      2          6           0       -5.061683   -0.729314   -1.627154
      3          6           0       -5.174336    0.390348   -0.795833
      4          6           0       -4.053303    0.975627   -0.202843
      5          6           0       -4.235528    2.203149    0.675617
      6          6           0       -2.766264    0.435584   -0.444670
      7          6           0       -1.571343    1.051172    0.204632
      8          6           0       -0.630623    1.688881   -0.518360
      9          7           0        0.440717    2.380049    0.044483
     10          6           0        1.597626    2.781364   -0.769858
     11          6           0        0.432216    2.581648    1.424090
     12          6           0       -0.460343    1.993213    2.234395
     13          6           0       -1.393488    0.897358    1.722639
     14          6           0       -0.802186   -0.443559    2.071246
     15          6           0       -1.048315   -1.369942    3.046237
     16          6           0       -0.043988   -2.394608    2.939314
     17          6           0        0.774245   -2.052840    1.893287
     18          6           0        1.937407   -2.681542    1.309796
     19          6           0        2.549761   -2.257164    0.226941
     20          6           0        3.158876   -1.850859   -0.859300
     21          6           0        4.240249   -0.841444   -0.918842
     22          6           0        4.879405   -0.584452   -2.143161
     23          6           0        5.899864    0.363309   -2.229322
     24          6           0        6.295871    1.072178   -1.093497
     25          6           0        5.662127    0.827466    0.130190
     26          6           0        4.643682   -0.118240    0.218651
     27          8           0        0.323849   -0.845723    1.335700
     28          6           0       -2.639722   -0.686818   -1.294333
     29          6           0       -1.285107   -1.297906   -1.622059
     30          6           0       -3.788910   -1.248360   -1.867625
     31          1           0       -6.854758   -1.936039   -1.481548
     32          1           0       -6.971924   -0.604573   -2.645902
     33          1           0       -6.026253   -2.053437   -3.045040
     34          1           0       -6.154043    0.822898   -0.613302
     35          1           0       -5.126317    2.762367    0.371638
     36          1           0       -4.363915    1.920204    1.729229
     37          1           0       -3.362916    2.859538    0.608348
     38          1           0        1.268616    2.957354   -1.798502
     39          1           0        2.015456    3.713271   -0.374894
     40          1           0        2.380807    2.013383   -0.772778
     41          1           0        1.161191    3.295923    1.790606
     42          1           0       -0.485659    2.240048    3.288233
     43          1           0       -2.366479    0.955773    2.224251
     44          1           0       -1.849404   -1.332696    3.764826
     45          1           0        0.049060   -3.272320    3.556726
     46          1           0        2.304007   -3.561826    1.836096
     47          1           0        2.851407   -2.263400   -1.821686
     48          1           0        4.574572   -1.134862   -3.027235
     49          1           0        6.385219    0.546792   -3.181114
     50          1           0        7.088814    1.808060   -1.158701
     51          1           0        5.964474    1.376118    1.015045
     52          1           0        4.147839   -0.308307    1.163694
     53          1           0       -0.586517   -1.181152   -0.792585
     54          1           0       -1.397904   -2.362753   -1.852318
     55          1           0       -0.844891   -0.812040   -2.503512
     56          1           0       -3.681688   -2.113993   -2.514582
     57          1           0       -0.700964    1.745662   -1.598790
 ---------------------------------------------------------------------

 SCF Done:  E(RB3LYP) =  -1212.82765493     A.U. after   15 cycles

 Excitation energies and oscillator strengths:

 Excited State   1:      Triplet-A      2.6531 eV  467.33 nm  f=0.0000  <S**2>=2.000
     101 ->106         0.13454
     104 ->106         0.32529
     104 ->107         0.55524
     105 ->107        -0.13979
 This state for optimization and/or second-order correction.
 Total Energy, E(TD-HF/TD-DFT) =  -1212.73015699
 Copying the excited state density for this state as the 1-particle RhoCI density.

 Excited State   2:      Triplet-A      2.8970 eV  427.97 nm  f=0.0000  <S**2>=2.000
     104 ->107         0.11851
     105 ->106         0.25644
     105 ->107         0.41154
     105 ->109         0.37903
     105 ->111        -0.25138

 Excited State   3:      Triplet-A      3.1249 eV  396.76 nm  f=0.0000  <S**2>=2.000
      96 ->112         0.13225
      99 ->108         0.20025
     101 ->106         0.58265
     101 ->107        -0.26978
     104 ->107        -0.14674

 Excited State   4:      Singlet-A      3.2801 eV  377.99 nm  f=0.0100  <S**2>=0.000
     105 ->106         0.50175
     105 ->107         0.49295

 Excited State   5:      Singlet-A      3.4412 eV  360.29 nm  f=0.0020  <S**2>=0.000
     105 ->106        -0.49570
     105 ->107         0.50121

 Excited State   6:      Singlet-A      3.8965 eV  318.20 nm  f=0.0040  <S**2>=0.000
     104 ->106         0.63761
     104 ->107        -0.26926

 The electronic state is 1-A.
 Alpha  occ. eigenvalues --  -19.19662 -14.35710 -10.24040 -10.23241 -10.21489
 Alpha  occ. eigenvalues --  -10.20841 -10.20614 -10.20532 -10.20082 -10.19980
 Alpha  occ. eigenvalues --  -10.19947 -10.19841 -10.18804 -10.18784 -10.18707
 Alpha  occ. eigenvalues --  -10.18679 -10.18472 -10.18295 -10.17843 -10.17801
 Alpha  occ. eigenvalues --  -10.17753 -10.17708 -10.17336 -10.17159 -10.16718
 Alpha  occ. eigenvalues --  -10.16611 -10.16314 -10.16127 -10.16047 -10.15311
 Alpha  occ. eigenvalues --   -1.09415  -0.95561  -0.86317  -0.85229  -0.82375
 Alpha  occ. eigenvalues --   -0.81074  -0.79656  -0.78052  -0.77232  -0.76547
 Alpha  occ. eigenvalues --   -0.74923  -0.74798  -0.73755  -0.71351  -0.68784
 Alpha  occ. eigenvalues --   -0.68686  -0.67028  -0.66393  -0.63408  -0.61235
 Alpha  occ. eigenvalues --   -0.61074  -0.60135  -0.59058  -0.56232  -0.55786
 Alpha  occ. eigenvalues --   -0.55284  -0.53519  -0.52251  -0.51560  -0.49769
 Alpha  occ. eigenvalues --   -0.48509  -0.48222  -0.47310  -0.46497  -0.46260
 Alpha  occ. eigenvalues --   -0.45741  -0.44588  -0.43847  -0.43415  -0.42880
 Alpha  occ. eigenvalues --   -0.42546  -0.41993  -0.41912  -0.41813  -0.41335
 Alpha  occ. eigenvalues --   -0.41012  -0.40307  -0.40217  -0.39834  -0.39422
 Alpha  occ. eigenvalues --   -0.39236  -0.38627  -0.38524  -0.38064  -0.37449
 Alpha  occ. eigenvalues --   -0.36559  -0.35553  -0.35421  -0.34985  -0.34444
 Alpha  occ. eigenvalues --   -0.34318  -0.33706  -0.31903  -0.31561  -0.31325
 Alpha  occ. eigenvalues --   -0.29931  -0.29532  -0.26957  -0.25294  -0.24885
 Alpha  occ. eigenvalues --   -0.22291  -0.22074  -0.21942  -0.19897  -0.17076
 Alpha virt. eigenvalues --   -0.02763  -0.02339   0.00132   0.01035   0.01983
 Alpha virt. eigenvalues --    0.02713   0.05865   0.06591   0.07130   0.09078
 Alpha virt. eigenvalues --    0.09776   0.10356   0.11065   0.11550   0.12074

 Mulliken charges:
               1
     1  C   -0.478958
     2  C    0.134598
     3  C   -0.206996
     4  C    0.101089
     5  C   -0.476310
     6  C   -0.059211
     7  C   -0.006781
     8  C    0.132257
     9  N   -0.601923
    10  C   -0.244493
    11  C    0.147219
    12  C   -0.140579
    13  C   -0.296651
    14  C    0.363493
    15  C   -0.172588
    16  C   -0.161037
    17  C    0.287267
    18  C   -0.242667
    19  C    0.104401
    20  C   -0.257040
    21  C    0.115093
    22  C   -0.168490
    23  C   -0.134375
    24  C   -0.120180
    25  C   -0.132637
    26  C   -0.144762
    27  O   -0.548280
    28  C    0.112252
    29  C   -0.493307
    30  C   -0.209500
    31  H    0.151155
    32  H    0.144039
    33  H    0.139617
    34  H    0.107765
    35  H    0.137427
    36  H    0.146137
    37  H    0.156729
    38  H    0.149596
    39  H    0.147304
    40  H    0.178701
    41  H    0.132924
    42  H    0.116412
    43  H    0.137117
    44  H    0.139941
    45  H    0.142118
    46  H    0.167204
    47  H    0.153733
    48  H    0.124479
    49  H    0.125571
    50  H    0.124125
    51  H    0.125528
    52  H    0.139106
    53  H    0.196270
    54  H    0.130611
    55  H    0.135643
    56  H    0.107891
    57  H    0.141954
 Sum of Mulliken charges =  -0.00000

 Dipole moment (field-independent basis, Debye):
    X=              1.4788    Y=              0.7999    Z=              0.0509  Tot=              1.6820
 Quadrupole moment (field-independent basis, Debye-Ang):
   XX=           -168.8599   YY=           -167.1404   ZZ=           -164.5298
   XY=              6.5941   XZ=             -4.8775   YZ=             -1.1205

 1\1\GINC-N2\SP\RB3LYP TD-FC\6-31G\C28H27N1O1\HPCMGAC13\13-Jun-2025\0\\
 # td=(50-50,nstates=3) b3lyp/6-31g\\[No Title]\\0,1\C,0,-6.298465,-1.3
 66675,-2.237376\C,0,-5.061683,-0.729314,-1.627154\C,0,-5.174336,0.3903
 48,-0.795833\C,0,-4.053303,0.975627,-0.202843\C,0,-4.235528,2.203149,0
 .675617\C,0,-2.766264,0.435584,-0.44467\C,0,-1.571343,1.051172,0.20463
 2\C,0,-0.630623,1.688881,-0.51836\N,0,0.440717,2.380049,0.044483\C,0,1
 .597626,2.781364,-0.769858\C,0,0.432216,2.581648,1.42409\C,0,-0.460343
 ,1.993213,2.234395\C,0,-1.393488,0.897358,1.722639\C,0,-0.802186,-0.44

 Normal termination of Gaussian 16 at Fri Jun 13 11:29:29 2025.
