 Gaussian 16, Revision C.02,
 Gaussian 16:  ES64L-G16RevC.02  7-Dec-2021

 ----------------------------------
 # td=(50-50,nstates=3) b3lyp/6-31g
 ----------------------------------

 ----------
 [No Title]
 ----------
 Symbolic Z-matrix:
 Charge =  0 Multiplicity = 1

                         Standard orientation:
 ---------------------------------------------------------------------
 Center     Atomic      Atomic             Coordinates (Angstroms)
 Number     Number       Type             X           Y           Z
 ---------------------------------------------------------------------
      1          6           0        0.128216    4.812601   -0.151456
      2          6           0       -0.516975    3.445068   -0.092951
      3          6           0       -1.788035    3.227471   -0.649460
      4          6           0       -2.411259    1.975422   -0.604045
      5          6           0       -3.778590    1.799477   -1.233280
      6          6           0       -1.745154    0.886543    0.019121
      7          6           0       -0.465672    1.091301    0.581868
      8          6           0        0.290252   -0.033482    1.285834
      9          6           0        0.127046    2.364141    0.514421
     10          1           0        0.200162    5.177926   -1.183524
     11          1           0       -0.452622    5.554162    0.412368
     12          1           0        1.139242    4.793869    0.267209
     13          1           0       -2.305197    4.053618   -1.131807
     14          1           0       -4.160347    2.756140   -1.602903
     15          1           0       -3.748563    1.099488   -2.076339
     16          1           0       -4.509992    1.399898   -0.520441
     17          1           0        1.117101    2.505682    0.939520
     18          6           0       -3.806148   -2.949646    0.394086
     19          6           0       -3.004844   -2.720977   -0.868022
     20          6           0       -2.344395   -1.359326   -0.880129
     21          6           0       -2.427310   -0.449205    0.106001
     22          6           0       -3.234838   -0.708737    1.368495
     23          6           0       -3.902627   -2.059920    1.389820
     24          1           0       -4.315033   -3.909226    0.471738
     25          1           0       -1.756707   -1.126472   -1.768038
     26          1           0       -2.579082   -0.598259    2.248908
     27          1           0       -4.491439   -2.295926    2.274328
     28          6           0        1.971312   -0.484044   -0.572754
     29          6           0        1.712814   -0.249273    0.789891
     30          6           0        2.795931   -0.248285    1.682500
     31          6           0        4.105380   -0.477457    1.239368
     32          6           0        4.318889   -0.708630   -0.115228
     33          6           0        3.270349   -0.715950   -1.033643
     34          1           0        1.149006   -0.478604   -1.281044
     35          1           0        2.619765   -0.068552    2.739090
     36          1           0        4.935863   -0.473552    1.934839
     37          1           0        3.463176   -0.897049   -2.084126
     38          1           0        0.325749    0.173819    2.364205
     39          1           0       -0.269428   -0.968004    1.167962
     40          6           0       -1.959865   -3.850042   -1.079630
     41          1           0       -2.448830   -4.830621   -1.121567
     42          1           0       -1.410854   -3.703691   -2.017470
     43          1           0       -1.237250   -3.861741   -0.256378
     44         17           0        6.024277   -1.008270   -0.710764
     45          1           0       -3.696252   -2.772722   -1.729322
     46          1           0       -3.988039    0.088108    1.490940
 ---------------------------------------------------------------------

 SCF Done:  E(RB3LYP) =  -1312.16575961     A.U. after   15 cycles

 Excitation energies and oscillator strengths:

 Excited State   1:      Triplet-A      3.6387 eV  340.74 nm  f=0.0000  <S**2>=2.000
      83 -> 89         0.18961
      84 -> 90         0.23654
      85 -> 87        -0.10922
      85 -> 88        -0.16204
      85 -> 89         0.38052
      85 -> 91         0.12117
      85 -> 92        -0.10058
      86 -> 88        -0.11049
      86 -> 90         0.36290
 This state for optimization and/or second-order correction.
 Total Energy, E(TD-HF/TD-DFT) =  -1312.03203907
 Copying the excited state density for this state as the 1-particle RhoCI density.

 Excited State   2:      Triplet-A      3.7059 eV  334.56 nm  f=0.0000  <S**2>=2.000
      81 -> 87        -0.42305
      83 -> 88         0.37386
      85 -> 87         0.11238
      85 -> 88        -0.28487
      86 -> 88         0.17412

 Excited State   3:      Triplet-A      3.9490 eV  313.96 nm  f=0.0000  <S**2>=2.000
      82 -> 89        -0.14225
      82 -> 90        -0.10796
      82 -> 91         0.27368
      82 -> 93        -0.22962
      84 -> 89         0.16737
      84 -> 90         0.14927
      84 -> 91        -0.34982
      84 -> 93         0.13972
      86 -> 89        -0.15891
      86 -> 91         0.29080
      86 -> 93        -0.13000

 Excited State   4:      Singlet-A      5.1455 eV  240.96 nm  f=0.0126  <S**2>=0.000
      81 -> 88        -0.15822
      83 -> 90        -0.10743
      84 -> 88        -0.11115
      84 -> 89         0.14409
      85 -> 87         0.34981
      85 -> 88         0.15843
      85 -> 89         0.13576
      85 -> 90        -0.24483
      86 -> 87        -0.26285
      86 -> 88        -0.18424
      86 -> 89         0.26704

 Excited State   5:      Singlet-A      5.2573 eV  235.83 nm  f=0.0069  <S**2>=0.000
      81 -> 88        -0.26772
      83 -> 87        -0.24891
      84 -> 89        -0.14470
      85 -> 87         0.30867
      85 -> 90         0.28330
      86 -> 87        -0.20853
      86 -> 88         0.13085
      86 -> 89        -0.27030

 Excited State   6:      Singlet-A      5.3644 eV  231.12 nm  f=0.0023  <S**2>=0.000
      84 -> 87         0.10549
      85 -> 87         0.38737
      85 -> 88        -0.11240
      86 -> 87         0.54392
      86 -> 88        -0.13201

 The electronic state is 1-A.
 Alpha  occ. eigenvalues -- -101.52077 -10.25285 -10.20462 -10.20200 -10.20168
 Alpha  occ. eigenvalues --  -10.19763 -10.19583 -10.19565 -10.19448 -10.19407
 Alpha  occ. eigenvalues --  -10.19332 -10.19172 -10.18998 -10.18991 -10.18937
 Alpha  occ. eigenvalues --  -10.18284 -10.18125 -10.18017 -10.17621 -10.17608
 Alpha  occ. eigenvalues --  -10.17580 -10.17446 -10.17338  -9.45336  -7.21708
 Alpha  occ. eigenvalues --   -7.20602  -7.20589  -0.88703  -0.86878  -0.84228
 Alpha  occ. eigenvalues --   -0.83544  -0.79284  -0.78731  -0.76643  -0.76125
 Alpha  occ. eigenvalues --   -0.75202  -0.73863  -0.69438  -0.68481  -0.67885
 Alpha  occ. eigenvalues --   -0.67560  -0.62521  -0.61036  -0.59772  -0.59054
 Alpha  occ. eigenvalues --   -0.57013  -0.55837  -0.50943  -0.50694  -0.48807
 Alpha  occ. eigenvalues --   -0.48734  -0.47790  -0.46431  -0.46197  -0.45013
 Alpha  occ. eigenvalues --   -0.43831  -0.43462  -0.42849  -0.42629  -0.41940
 Alpha  occ. eigenvalues --   -0.41364  -0.41162  -0.40828  -0.40561  -0.40228
 Alpha  occ. eigenvalues --   -0.39358  -0.38589  -0.38261  -0.38083  -0.37309
 Alpha  occ. eigenvalues --   -0.36613  -0.36006  -0.35560  -0.35094  -0.33867
 Alpha  occ. eigenvalues --   -0.33198  -0.32722  -0.31861  -0.30645  -0.30503
 Alpha  occ. eigenvalues --   -0.26286  -0.25794  -0.24595  -0.23353  -0.23130
 Alpha  occ. eigenvalues --   -0.22956
 Alpha virt. eigenvalues --   -0.01253  -0.00905   0.00087   0.00661   0.01807
 Alpha virt. eigenvalues --    0.01838   0.02874   0.08114   0.10392   0.10925
 Alpha virt. eigenvalues --    0.10983   0.12006   0.12469   0.12777   0.13295

 Mulliken charges:
               1
     1  C   -0.483274
     2  C    0.134407
     3  C   -0.202127
     4  C    0.111165
     5  C   -0.471740
     6  C   -0.095303
     7  C    0.117239
     8  C   -0.399689
     9  C   -0.202465
    10  H    0.151526
    11  H    0.151945
    12  H    0.144801
    13  H    0.115122
    14  H    0.138088
    15  H    0.155897
    16  H    0.149897
    17  H    0.123382
    18  C   -0.072927
    19  C   -0.203316
    20  C   -0.099218
    21  C    0.044544
    22  C   -0.354374
    23  C   -0.089932
    24  H    0.112587
    25  H    0.115867
    26  H    0.151536
    27  H    0.114295
    28  C   -0.141562
    29  C    0.130594
    30  C   -0.173450
    31  C   -0.095341
    32  C   -0.232480
    33  C   -0.100125
    34  H    0.142468
    35  H    0.132037
    36  H    0.155115
    37  H    0.155606
    38  H    0.146880
    39  H    0.165168
    40  C   -0.396469
    41  H    0.132223
    42  H    0.131669
    43  H    0.143169
    44  Cl   0.052438
    45  H    0.140888
    46  H    0.153240
 Sum of Mulliken charges =  -0.00000

 Dipole moment (field-independent basis, Debye):
    X=             -3.1195    Y=              0.5514    Z=              0.7125  Tot=              3.2470
 Quadrupole moment (field-independent basis, Debye-Ang):
   XX=           -158.2878   YY=           -139.3682   ZZ=           -136.6802
   XY=              5.0039   XZ=              5.6386   YZ=              0.3776

 Normal termination of Gaussian 16 at Fri Jun 13 11:29:48 2025.
