 Gaussian 16, Revision C.02,
 Gaussian 16:  ES64L-G16RevC.02  7-Dec-2021

 ----------------------------------
 # td=(50-50,nstates=3) b3lyp/6-31g
 ----------------------------------

 ----------
 [No Title]
 ----------
 Symbolic Z-matrix:
 Charge =  0 Multiplicity = 1

                         Standard orientation:
 ---------------------------------------------------------------------
 Center     Atomic      Atomic             Coordinates (Angstroms)
 Number     Number       Type             X           Y           Z
 ---------------------------------------------------------------------
      1          6           0        2.806012    3.955055   -0.329470
      2          6           0        1.641765    3.003166   -0.160979
      3          6           0        0.368414    3.332946   -0.654224
      4          6           0       -0.722555    2.466444   -0.525441
      5          6           0       -2.067094    2.868791   -1.095472
      6          6           0       -0.549885    1.212183    0.121120
      7          6           0       -1.721703    0.294847    0.295603
      8          6           0       -2.600244    0.496235    1.531443
      9          6           0       -3.938084   -1.408487    0.579615
     10          6           0       -1.995267   -0.666421   -0.614458
     11          6           0        0.725794    0.875314    0.626022
     12          6           0        0.973646   -0.443645    1.357588
     13          6           0        1.993311   -1.340255    0.713028
     14          6           0        3.193415   -1.773876    1.204625
     15          6           0        3.925804   -2.647801    0.325755
     16          6           0        3.293056   -2.895018   -0.855339
     17         16           0        1.710359   -2.034739   -0.949488
     18          6           0        1.798797    1.769412    0.474894
     19          1           0        3.095335    4.049792   -1.384515
     20          1           0        2.556682    4.962000    0.027396
     21          1           0        3.685229    3.610578    0.224149
     22          1           0        0.224118    4.287647   -1.154911
     23          1           0       -2.014562    3.863551   -1.548981
     24          1           0       -2.406639    2.162978   -1.862114
     25          1           0       -2.847051    2.893309   -0.324747
     26          1           0       -2.973530    1.536173    1.566203
     27          1           0       -4.768494   -2.105798    0.601642
     28          1           0       -1.364154   -0.810982   -1.484977
     29          1           0        1.333856   -0.230138    2.373734
     30          1           0        0.024006   -0.978414    1.463406
     31          1           0        4.891601   -3.069564    0.577598
     32          1           0        3.611625   -3.502861   -1.687589
     33          7           0       -3.092537   -1.531753   -0.530548
     34          6           0       -3.752142   -0.488010    1.543354
     35          1           0        2.776578    1.485242    0.855616
     36          1           0       -4.463523   -0.435416    2.361386
     37          6           0       -3.197623   -2.681159   -1.424306
     38          1           0       -2.630862   -3.552708   -1.063761
     39          1           0       -4.247599   -2.970657   -1.529349
     40          1           0       -2.820294   -2.413223   -2.415647
     41          1           0       -1.987305    0.398484    2.447047
     42          1           0        3.554487   -1.480230    2.183920
 ---------------------------------------------------------------------

 SCF Done:  E(RB3LYP) =  -1189.34800392     A.U. after   16 cycles

 Excitation energies and oscillator strengths:

 Excited State   1:      Triplet-A      2.8458 eV  435.68 nm  f=0.0000  <S**2>=2.000
      74 -> 85        -0.13546
      79 -> 81         0.33889
      79 -> 83         0.59143
 This state for optimization and/or second-order correction.
 Total Energy, E(TD-HF/TD-DFT) =  -1189.24342306
 Copying the excited state density for this state as the 1-particle RhoCI density.

 Excited State   2:      Triplet-A      3.2562 eV  380.77 nm  f=0.0000  <S**2>=2.000
      76 -> 80        -0.33112
      78 -> 80         0.58005
      78 -> 82        -0.11897
      79 -> 80        -0.12177

 Excited State   3:      Triplet-A      3.6384 eV  340.76 nm  f=0.0000  <S**2>=2.000
      76 -> 81         0.32656
      76 -> 83        -0.14083
      77 -> 80        -0.16765
      77 -> 82        -0.47552
      78 -> 81         0.27613
      78 -> 83        -0.12612

 Excited State   4:      Singlet-A      3.7292 eV  332.47 nm  f=0.0116  <S**2>=0.000
      79 -> 80         0.69724
      79 -> 82         0.10649

 Excited State   5:      Singlet-A      4.0637 eV  305.10 nm  f=0.0104  <S**2>=0.000
      79 -> 81         0.69516

 Excited State   6:      Singlet-A      4.1433 eV  299.24 nm  f=0.0018  <S**2>=0.000
      79 -> 80        -0.10041
      79 -> 81         0.10810
      79 -> 82         0.68805

 The electronic state is 1-A.
 Alpha  occ. eigenvalues --  -88.87981 -14.35503 -10.21978 -10.21740 -10.20955
 Alpha  occ. eigenvalues --  -10.20876 -10.20812 -10.18933 -10.18661 -10.18651
 Alpha  occ. eigenvalues --  -10.18546 -10.18473 -10.18342 -10.18143 -10.18000
 Alpha  occ. eigenvalues --  -10.17480 -10.17087 -10.16879 -10.16851 -10.16620
 Alpha  occ. eigenvalues --  -10.16546  -7.95832  -5.92168  -5.91782  -5.91266
 Alpha  occ. eigenvalues --   -0.95436  -0.87052  -0.85578  -0.80438  -0.78589
 Alpha  occ. eigenvalues --   -0.77472  -0.75264  -0.73213  -0.72439  -0.71213
 Alpha  occ. eigenvalues --   -0.68652  -0.67611  -0.66851  -0.63027  -0.61199
 Alpha  occ. eigenvalues --   -0.57608  -0.55932  -0.55179  -0.52764  -0.51722
 Alpha  occ. eigenvalues --   -0.49670  -0.48987  -0.47852  -0.47538  -0.45534
 Alpha  occ. eigenvalues --   -0.45044  -0.43021  -0.42532  -0.41816  -0.41543
 Alpha  occ. eigenvalues --   -0.41319  -0.40709  -0.40441  -0.40294  -0.40053
 Alpha  occ. eigenvalues --   -0.39743  -0.38696  -0.38502  -0.36678  -0.36095
 Alpha  occ. eigenvalues --   -0.35765  -0.35297  -0.34525  -0.33532  -0.33100
 Alpha  occ. eigenvalues --   -0.32585  -0.32066  -0.31195  -0.25418  -0.24439
 Alpha  occ. eigenvalues --   -0.23236  -0.22332  -0.21862  -0.16553
 Alpha virt. eigenvalues --   -0.00879   0.00856   0.01267   0.01877   0.04018
 Alpha virt. eigenvalues --    0.07105   0.07743   0.08230   0.09796   0.10674
 Alpha virt. eigenvalues --    0.11362   0.11928   0.12453   0.13078   0.13450

 Mulliken charges:
               1
     1  C   -0.482426
     2  C    0.133704
     3  C   -0.201418
     4  C    0.108919
     5  C   -0.472008
     6  C   -0.086861
     7  C   -0.024831
     8  C   -0.305933
     9  C    0.135866
    10  C    0.120137
    11  C    0.110738
    12  C   -0.385079
    13  C   -0.257206
    14  C   -0.073295
    15  C   -0.047663
    16  C   -0.466863
    17  S    0.390449
    18  C   -0.193356
    19  H    0.153223
    20  H    0.147327
    21  H    0.141831
    22  H    0.112342
    23  H    0.134288
    24  H    0.154734
    25  H    0.152462
    26  H    0.135268
    27  H    0.130641
    28  H    0.153092
    29  H    0.156749
    30  H    0.171201
    31  H    0.137618
    32  H    0.159923
    33  N   -0.605652
    34  C   -0.151272
    35  H    0.119246
    36  H    0.108734
    37  C   -0.240551
    38  H    0.154654
    39  H    0.150310
    40  H    0.154989
    41  H    0.131975
    42  H    0.133995
 Sum of Mulliken charges =  -0.00000

 Dipole moment (field-independent basis, Debye):
    X=             -0.2707    Y=             -0.9293    Z=             -0.3056  Tot=              1.0150
 Quadrupole moment (field-independent basis, Debye-Ang):
   XX=           -121.2144   YY=           -124.8440   ZZ=           -128.0149
   XY=              3.7515   XZ=              4.1001   YZ=              2.6751

 1\1\GINC-N2\SP\RB3LYP TD-FC\6-31G\C19H21N1S1\HPCMGAC13\13-Jun-2025\0\\
 # td=(50-50,nstates=3) b3lyp/6-31g\\[No Title]\\0,1\C,0,2.806011,3.955
 055,-0.32947\C,0,1.641765,3.003166,-0.160979\C,0,0.368414,3.332946,-0.
 654224\C,0,-0.722555,2.466444,-0.525441\C,0,-2.067094,2.868791,-1.0954
 72\C,0,-0.549885,1.212183,0.12112\C,0,-1.721703,0.294847,0.295603\C,0,
 -2.600244,0.496235,1.531443\C,0,-3.938084,-1.408487,0.579615\C,0,-1.99
 5267,-0.666421,-0.614458\C,0,0.725794,0.875314,0.626022\C,0,0.973646,-
 0.443645,1.357588\C,0,1.993311,-1.340255,0.713028\C,0,3.193415,-1.7738

 Normal termination of Gaussian 16 at Fri Jun 13 11:31:31 2025.
