 Gaussian 16, Revision C.02,
 Gaussian 16:  ES64L-G16RevC.02  7-Dec-2021

 ----------------------------------
 # td=(50-50,nstates=3) b3lyp/6-31g
 ----------------------------------

 ----------
 [No Title]
 ----------
 Symbolic Z-matrix:
 Charge =  1 Multiplicity = 2

                         Standard orientation:
 ---------------------------------------------------------------------
 Center     Atomic      Atomic             Coordinates (Angstroms)
 Number     Number       Type             X           Y           Z
 ---------------------------------------------------------------------
      1          6           0       -1.212994    5.077955    0.117696
      2          6           0       -1.330105    3.543331    0.071075
      3          6           0       -0.175502    2.750797    0.117092
      4          6           0       -0.282243    1.354182    0.074639
      5          6           0       -1.543503    0.750183   -0.013946
      6          6           0       -1.659764   -0.784770   -0.060475
      7          6           0       -2.875692   -1.379345   -0.137585
      8          7           0       -3.034442   -2.831395   -0.417385
      9          6           0       -4.225468   -3.310035    0.299157
     10          6           0       -1.873212   -3.660272    0.003503
     11          6           0       -0.616384   -3.158491    0.086396
     12          6           0       -0.410581   -1.653368   -0.008718
     13          6           0        0.830102   -1.109382   -0.024841
     14          6           0        2.240775   -0.491911   -0.043113
     15          6           0        2.402286    0.891167   -0.120443
     16          6           0        3.693809    1.416866   -0.134625
     17          6           0        4.791316    0.547212   -0.071659
     18          7           0        4.607666   -0.782460    0.001588
     19          6           0        5.777061   -1.670832    0.064969
     20          6           0        3.373421   -1.314523    0.017825
     21          6           0       -2.698189    1.542720   -0.059947
     22          6           0       -2.591320    2.939264   -0.017434
     23          1           0       -0.345188    5.352337    0.680451
     24          1           0       -1.127600    5.459496   -0.878351
     25          1           0       -2.084535    5.488162    0.583382
     26          1           0        0.787626    3.211819    0.184614
     27          1           0       -3.752336   -0.780844   -0.003488
     28          1           0       -5.080543   -2.749196   -0.016133
     29          1           0       -4.379366   -4.346743    0.083127
     30          1           0       -4.083678   -3.182550    1.352008
     31          1           0       -2.033634   -4.691633    0.238090
     32          1           0        3.845701    2.474375   -0.192927
     33          1           0        5.784248    0.945285   -0.081920
     34          1           0        6.595675   -1.220627   -0.456619
     35          1           0        6.049557   -1.829583    1.087471
     36          1           0        5.537087   -2.608932   -0.389953
     37          1           0       -3.472841    3.544395   -0.052656
     38          1           0        0.219738   -3.811576    0.225248
     39          1           0        3.254779   -2.376060    0.077703
     40          6           0       -4.084344    0.879357   -0.157340
     41          1           0       -4.463245    0.698761    0.826929
     42          1           0       -4.753443    1.527342   -0.683992
     43          6           0        0.986605    0.483209    0.125496
     44          1           0        0.758983   -0.451485    0.593529
     45          1           0        1.743617    0.988468    0.687681
     46          1           0        1.550656    1.537190   -0.167958
     47          1           0        1.338815    0.307619   -0.869374
     48          1           0       -3.999084   -0.048907   -0.682604
 ---------------------------------------------------------------------

 SCF Done:  E(UB3LYP) =  -960.676474616     A.U. after   27 cycles

 Excitation energies and oscillator strengths:

 Excited State   1:  2.224-A      0.8905 eV 1392.25 nm  f=0.0016  <S**2>=0.986
     84A -> 86A       -0.10583
     84A -> 87A        0.15983
     85A -> 86A        0.16294
     84B -> 85B        0.95947
 This state for optimization and/or second-order correction.
 Total Energy, E(TD-HF/TD-DFT) =  -960.643748253
 Copying the excited state density for this state as the 1-particle RhoCI density.

 Excited State   2:  2.602-A      1.2504 eV  991.54 nm  f=0.0014  <S**2>=1.442
     85A -> 86A        0.87587
     84B -> 85B       -0.15966
     84B -> 86B       -0.40178
     84B -> 87B        0.12046

 Excited State   3:  2.860-A      1.4603 eV  849.04 nm  f=0.0005  <S**2>=1.796
     84A -> 86A        0.52070
     85A -> 86A        0.26744
     85A -> 87A        0.41074
     84B -> 86B        0.65043
     84B -> 87B       -0.21165

 The electronic state is 2-A.
 Alpha  occ. eigenvalues --  -14.52675 -14.48010 -10.41731 -10.37288 -10.36868
 Alpha  occ. eigenvalues --  -10.35817 -10.35126 -10.34886 -10.34814 -10.33761
 Alpha  occ. eigenvalues --  -10.33336 -10.33154 -10.32547 -10.32491 -10.32191
 Alpha  occ. eigenvalues --  -10.31798 -10.31150 -10.30605 -10.30313 -10.30297
 Alpha  occ. eigenvalues --  -10.29856 -10.28921 -10.26965 -10.26369  -1.30405
 Alpha  occ. eigenvalues --   -1.13712  -1.08702  -1.05289  -0.99491  -0.94147
 Alpha  occ. eigenvalues --   -0.93349  -0.91976  -0.90354  -0.89152  -0.86729
 Alpha  occ. eigenvalues --   -0.84815  -0.84184  -0.82926  -0.80608  -0.79745
 Alpha  occ. eigenvalues --   -0.78397  -0.75592  -0.74919  -0.72588  -0.72262
 Alpha  occ. eigenvalues --   -0.69753  -0.69335  -0.66540  -0.65095  -0.62587
 Alpha  occ. eigenvalues --   -0.61749  -0.60675  -0.60157  -0.59447  -0.59189
 Alpha  occ. eigenvalues --   -0.57932  -0.57392  -0.56670  -0.55484  -0.55217
 Alpha  occ. eigenvalues --   -0.54055  -0.53322  -0.53171  -0.52804  -0.52177
 Alpha  occ. eigenvalues --   -0.51891  -0.51128  -0.50660  -0.49854  -0.49120
 Alpha  occ. eigenvalues --   -0.48404  -0.47956  -0.47265  -0.45598  -0.44908
 Alpha  occ. eigenvalues --   -0.43796  -0.41668  -0.40707  -0.40117  -0.38281
 Alpha  occ. eigenvalues --   -0.35893  -0.35219  -0.32921  -0.27586  -0.25870
 Alpha virt. eigenvalues --   -0.17102  -0.15222  -0.13335  -0.11001  -0.09444
 Alpha virt. eigenvalues --   -0.08420  -0.06817  -0.06163  -0.04968  -0.01952
 Alpha virt. eigenvalues --   -0.01189  -0.00660   0.00505   0.01030   0.01465

  Beta  occ. eigenvalues --  -14.52599 -14.47995 -10.40828 -10.37281 -10.36425
  Beta  occ. eigenvalues --  -10.35536 -10.34836 -10.34769 -10.34617 -10.33765
  Beta  occ. eigenvalues --  -10.33304 -10.33158 -10.32488 -10.32480 -10.32177
  Beta  occ. eigenvalues --  -10.31783 -10.31154 -10.30606 -10.30297 -10.30263
  Beta  occ. eigenvalues --  -10.29855 -10.28908 -10.26963 -10.26369  -1.28621
  Beta  occ. eigenvalues --   -1.13466  -1.07681  -1.05246  -0.99375  -0.93701
  Beta  occ. eigenvalues --   -0.93187  -0.91720  -0.90120  -0.89041  -0.86703
  Beta  occ. eigenvalues --   -0.84386  -0.83879  -0.82807  -0.80012  -0.79715
  Beta  occ. eigenvalues --   -0.77521  -0.75448  -0.74490  -0.72308  -0.72110
  Beta  occ. eigenvalues --   -0.69652  -0.68722  -0.66304  -0.64939  -0.62452
  Beta  occ. eigenvalues --   -0.61579  -0.60441  -0.59883  -0.59303  -0.59023
  Beta  occ. eigenvalues --   -0.57843  -0.57320  -0.56432  -0.55410  -0.54969
  Beta  occ. eigenvalues --   -0.54044  -0.53268  -0.53061  -0.52733  -0.51882
  Beta  occ. eigenvalues --   -0.51841  -0.51025  -0.50279  -0.49748  -0.49091
  Beta  occ. eigenvalues --   -0.48336  -0.47873  -0.47149  -0.45564  -0.44721
  Beta  occ. eigenvalues --   -0.43550  -0.41362  -0.39884  -0.39770  -0.38128
  Beta  occ. eigenvalues --   -0.35628  -0.35031  -0.32619  -0.26315
  Beta virt. eigenvalues --   -0.18799  -0.16912  -0.14609  -0.13240  -0.10763
  Beta virt. eigenvalues --   -0.08720  -0.08258  -0.05687  -0.05649  -0.04358
  Beta virt. eigenvalues --   -0.01721  -0.01072  -0.00555   0.00753   0.01123

 Mulliken charges and spin densities:
               1          2
     1  C   -0.471171   0.000441
     2  C    0.093712  -0.004924
     3  C   -0.170595   0.012479
     4  C    0.274561  -0.001208
     5  C   -0.018066   0.011472
     6  C    0.177737  -0.001592
     7  C   -0.085224   0.010748
     8  N   -0.470547   0.005287
     9  C   -0.291803   0.000143
    10  C    0.043796  -0.004984
    11  C   -0.097606   0.017438
    12  C   -0.026482  -0.009276
    13  C   -0.026330   0.089112
    14  C   -0.251915   0.143634
    15  C   -0.135757   0.205233
    16  C   -0.144167  -0.058116
    17  C    0.126858   0.201635
    18  N   -0.617454   0.020406
    19  C   -0.254485  -0.002858
    20  C    0.213201  -0.018088
    21  C    0.072792  -0.005629
    22  C   -0.168804   0.010186
    23  H    0.156517  -0.000096
    24  H    0.179992  -0.000226
    25  H    0.168243  -0.000087
    26  H    0.161880  -0.000225
    27  H    0.160492  -0.000525
    28  H    0.171585   0.000020
    29  H    0.178529  -0.000048
    30  H    0.164863   0.000342
    31  H    0.172399   0.000733
    32  H    0.177796   0.006876
    33  H    0.188898  -0.006772
    34  H    0.192413   0.002212
    35  H    0.202463   0.002074
    36  H    0.187159  -0.000112
    37  H    0.150656  -0.000234
    38  H    0.151009  -0.000840
    39  H    0.199705   0.005619
    40  C   -0.512434   0.000967
    41  H    0.190757  -0.000150
    42  H    0.169263  -0.000024
    43  C   -0.691993   0.309901
    44  H    0.200652   0.000585
    45  H    0.208241  -0.022319
    46  H    0.153218   0.040682
    47  H    0.355384   0.040158
    48  H    0.190063  -0.000051
 Sum of Mulliken charges =   1.00000   1.00000

 Dipole moment (field-independent basis, Debye):
    X=              5.1767    Y=             -1.3485    Z=              1.5055  Tot=              5.5573
 Quadrupole moment (field-independent basis, Debye-Ang):
   XX=            -54.6188   YY=            -98.2145   ZZ=           -147.0095
   XY=             -4.4534   XZ=             -2.3749   YZ=             -4.1217

 Normal termination of Gaussian 16 at Fri Jun 13 20:34:05 2025.
