 Gaussian 16, Revision C.02,
 Gaussian 16:  ES64L-G16RevC.02  7-Dec-2021

 ----------------------------------
 # td=(50-50,nstates=3) b3lyp/6-31g
 ----------------------------------

 ----------
 [No Title]
 ----------
 Symbolic Z-matrix:
 Charge =  0 Multiplicity = 1

                         Standard orientation:
 ---------------------------------------------------------------------
 Center     Atomic      Atomic             Coordinates (Angstroms)
 Number     Number       Type             X           Y           Z
 ---------------------------------------------------------------------
      1          6           0       -3.661819   -4.344795   -1.418216
      2          6           0       -3.312247   -2.974265   -0.880131
      3          6           0       -4.285673   -1.965799   -0.796357
      4          6           0       -3.996817   -0.700781   -0.271653
      5          6           0       -5.091917    0.343662   -0.205978
      6          6           0       -2.679590   -0.408017    0.177696
      7          6           0       -2.391949    0.919849    0.810199
      8          6           0       -1.830744    1.932694    0.114536
      9          7           0       -1.524879    3.183838    0.661850
     10          6           0       -1.025571    4.259534   -0.188618
     11          6           0       -1.870361    3.414601    1.999178
     12          6           0       -2.428032    2.472949    2.781980
     13          6           0       -2.727058    1.069159    2.295944
     14          6           0       -1.684493   -1.412771    0.086011
     15          6           0       -0.249988   -1.167678    0.523004
     16          6           0        0.762080   -1.210239   -0.650879
     17          7           0        0.485322   -0.217798   -1.692020
     18          6           0        1.518740    0.672904   -1.840460
     19          6           0        1.583047    1.771571   -2.713885
     20          6           0        2.735569    2.560123   -2.707047
     21          6           0        3.808313    2.268796   -1.848949
     22          6           0        3.737629    1.171577   -0.982367
     23          6           0        2.597515    0.355925   -0.961536
     24          6           0        2.200363   -0.853725   -0.187682
     25          7           0        2.702413   -1.624379    0.712154
     26          6           0        4.024011   -1.574311    1.386983
     27          6           0        4.027804   -2.782239    2.352903
     28          6           0        5.179395   -1.758446    0.373387
     29          6           0        4.172719   -0.281105    2.224671
     30          6           0       -2.020589   -2.675075   -0.438534
     31          1           0       -4.278787   -4.908245   -0.705364
     32          1           0       -4.232058   -4.276261   -2.352507
     33          1           0       -2.762761   -4.937571   -1.615107
     34          1           0       -5.294741   -2.171211   -1.146422
     35          1           0       -5.995827   -0.007544   -0.713499
     36          1           0       -5.365132    0.580914    0.830198
     37          1           0       -4.779216    1.284939   -0.670495
     38          1           0       -1.567911    1.819701   -0.930926
     39          1           0       -0.313886    3.858148   -0.917304
     40          1           0       -1.829125    4.779288   -0.732706
     41          1           0       -0.496532    4.994005    0.425077
     42          1           0       -1.650863    4.412013    2.363772
     43          1           0       -2.659389    2.718836    3.813419
     44          1           0       -2.156722    0.321554    2.878803
     45          1           0       -3.784492    0.807210    2.479093
     46          1           0       -0.164211   -0.196717    1.016601
     47          1           0        0.081080   -1.932635    1.235483
     48          1           0        0.771175   -2.220024   -1.080888
     49          1           0       -0.390773   -0.171549   -2.182454
     50          1           0        0.760174    1.991129   -3.387258
     51          1           0        2.801979    3.409653   -3.380317
     52          1           0        4.695416    2.892536   -1.857548
     53          1           0        4.971464   -2.836892    2.908972
     54          1           0        3.201098   -2.695765    3.065318
     55          1           0        3.892998   -3.712480    1.791645
     56          1           0        6.140142   -1.789724    0.900680
     57          1           0        5.222746   -0.958469   -0.368565
     58          1           0        5.053289   -2.705983   -0.161775
     59          1           0        4.147596    0.623424    1.613321
     60          1           0        3.355834   -0.216883    2.951681
     61          1           0       -1.252565   -3.443420   -0.493214
     62          1           0        5.120436   -0.296820    2.775744
     63          1           0        4.577550    0.968632   -0.332566
 ---------------------------------------------------------------------

 SCF Done:  E(RB3LYP) =  -1212.66967105     A.U. after   16 cycles

 Excitation energies and oscillator strengths:

 Excited State   1:      Triplet-A      2.5928 eV  478.19 nm  f=0.0000  <S**2>=2.000
     103 ->109        -0.17618
     107 ->109         0.67079
 This state for optimization and/or second-order correction.
 Total Energy, E(TD-HF/TD-DFT) =  -1212.57438845
 Copying the excited state density for this state as the 1-particle RhoCI density.

 Excited State   2:      Triplet-A      2.8276 eV  438.49 nm  f=0.0000  <S**2>=2.000
     102 ->115        -0.12777
     108 ->109        -0.18475
     108 ->110        -0.23532
     108 ->111        -0.22352
     108 ->113         0.58316

 Excited State   3:      Singlet-A      2.9205 eV  424.53 nm  f=0.0004  <S**2>=0.000
     108 ->109         0.70656

 Excited State   4:      Triplet-A      2.9210 eV  424.46 nm  f=0.0000  <S**2>=2.000
     106 ->109        -0.14481
     108 ->109         0.66313
     108 ->113         0.15861

 Excited State   5:      Singlet-A      3.5109 eV  353.14 nm  f=0.1103  <S**2>=0.000
     106 ->109         0.18042
     107 ->109         0.67250

 Excited State   6:      Singlet-A      3.6055 eV  343.87 nm  f=0.0093  <S**2>=0.000
     106 ->109         0.66794
     107 ->109        -0.18224

 The electronic state is 1-A.
 Alpha  occ. eigenvalues --  -14.35420 -14.34078 -14.30366 -10.23232 -10.23062
 Alpha  occ. eigenvalues --  -10.21876 -10.21772 -10.21663 -10.20781 -10.20763
 Alpha  occ. eigenvalues --  -10.19216 -10.19027 -10.18820 -10.18773 -10.18759
 Alpha  occ. eigenvalues --  -10.18611 -10.18455 -10.18311 -10.17800 -10.17735
 Alpha  occ. eigenvalues --  -10.17393 -10.17362 -10.17145 -10.17117 -10.17056
 Alpha  occ. eigenvalues --  -10.16809 -10.16345 -10.16269 -10.16255 -10.15215
 Alpha  occ. eigenvalues --   -0.95954  -0.95349  -0.90403  -0.85918  -0.84340
 Alpha  occ. eigenvalues --   -0.80423  -0.79725  -0.77987  -0.77520  -0.75482
 Alpha  occ. eigenvalues --   -0.75264  -0.73757  -0.71602  -0.71123  -0.68612
 Alpha  occ. eigenvalues --   -0.68461  -0.67714  -0.67490  -0.66310  -0.62947
 Alpha  occ. eigenvalues --   -0.61896  -0.61098  -0.59674  -0.58672  -0.56157
 Alpha  occ. eigenvalues --   -0.55931  -0.54331  -0.51738  -0.50989  -0.49434
 Alpha  occ. eigenvalues --   -0.48900  -0.47816  -0.47543  -0.46972  -0.45575
 Alpha  occ. eigenvalues --   -0.45043  -0.44970  -0.44702  -0.44502  -0.43522
 Alpha  occ. eigenvalues --   -0.43383  -0.42412  -0.42085  -0.41804  -0.41276
 Alpha  occ. eigenvalues --   -0.41196  -0.40514  -0.40316  -0.40063  -0.39794
 Alpha  occ. eigenvalues --   -0.39256  -0.38934  -0.38718  -0.38489  -0.37834
 Alpha  occ. eigenvalues --   -0.37214  -0.36660  -0.35941  -0.35767  -0.35662
 Alpha  occ. eigenvalues --   -0.35219  -0.34940  -0.34218  -0.33695  -0.33448
 Alpha  occ. eigenvalues --   -0.32704  -0.32360  -0.31582  -0.31132  -0.30279
 Alpha  occ. eigenvalues --   -0.28975  -0.25227  -0.24321  -0.23157  -0.22567
 Alpha  occ. eigenvalues --   -0.21086  -0.18778  -0.16361
 Alpha virt. eigenvalues --   -0.03823   0.00726   0.00818   0.01812   0.02096
 Alpha virt. eigenvalues --    0.05676   0.07387   0.07891   0.08911   0.09837
 Alpha virt. eigenvalues --    0.10550   0.10730   0.11273   0.12309   0.12787

 Mulliken charges:
               1
     1  C   -0.482402
     2  C    0.134100
     3  C   -0.203549
     4  C    0.103551
     5  C   -0.471752
     6  C   -0.096522
     7  C   -0.010609
     8  C    0.131139
     9  N   -0.608981
    10  C   -0.245893
    11  C    0.138422
    12  C   -0.153107
    13  C   -0.304731
    14  C    0.091444
    15  C   -0.288075
    16  C    0.025896
    17  N   -0.741087
    18  C    0.272777
    19  C   -0.109869
    20  C   -0.138624
    21  C   -0.143869
    22  C   -0.144778
    23  C    0.100002
    24  C    0.106920
    25  N   -0.395056
    26  C    0.113685
    27  C   -0.360031
    28  C   -0.400237
    29  C   -0.399783
    30  C   -0.214777
    31  H    0.154950
    32  H    0.146281
    33  H    0.142630
    34  H    0.112691
    35  H    0.134361
    36  H    0.154772
    37  H    0.151570
    38  H    0.125802
    39  H    0.163280
    40  H    0.145519
    41  H    0.152220
    42  H    0.130466
    43  H    0.108203
    44  H    0.137806
    45  H    0.132353
    46  H    0.148508
    47  H    0.163619
    48  H    0.162415
    49  H    0.310273
    50  H    0.120550
    51  H    0.123038
    52  H    0.118153
    53  H    0.112115
    54  H    0.133657
    55  H    0.132784
    56  H    0.128700
    57  H    0.138177
    58  H    0.140540
    59  H    0.137719
    60  H    0.142442
    61  H    0.120266
    62  H    0.128452
    63  H    0.141483
 Sum of Mulliken charges =  -0.00000

 Dipole moment (field-independent basis, Debye):
    X=             -0.5120    Y=              2.1401    Z=             -1.5737  Tot=              2.7054
 Quadrupole moment (field-independent basis, Debye-Ang):
   XX=           -174.8706   YY=           -167.8640   ZZ=           -177.7161
   XY=              4.3094   XZ=              4.9303   YZ=             -0.3683

 Normal termination of Gaussian 16 at Fri Jun 13 11:33:01 2025.
