 Gaussian 16, Revision C.02,
 Gaussian 16:  ES64L-G16RevC.02  7-Dec-2021

 ----------------------------------
 # td=(50-50,nstates=3) b3lyp/6-31g
 ----------------------------------

 ----------
 [No Title]
 ----------
 Symbolic Z-matrix:
 Charge =  0 Multiplicity = 1

                         Standard orientation:
 ---------------------------------------------------------------------
 Center     Atomic      Atomic             Coordinates (Angstroms)
 Number     Number       Type             X           Y           Z
 ---------------------------------------------------------------------
      1          6           0       -4.517657   -1.902000   -0.107013
      2          6           0       -3.046457   -1.558330   -0.017723
      3          6           0       -2.065280   -2.499615   -0.358581
      4          6           0       -0.698881   -2.202271   -0.276349
      5          6           0        0.312850   -3.276043   -0.624907
      6          6           0       -0.283245   -0.908851    0.137719
      7          6           0        1.179225   -0.640859    0.331639
      8          6           0        1.985936   -0.307478   -0.698187
      9          7           0        3.357460   -0.049334   -0.566764
     10          6           0        4.201642    0.098782   -1.747030
     11          6           0        3.922075   -0.148673    0.711262
     12          6           0        3.209165   -0.487064    1.801128
     13          6           0        1.732923   -0.823491    1.747140
     14          6           0       -1.264188    0.063537    0.462806
     15          6           0       -0.886439    1.465338    0.920233
     16          6           0       -1.068536    2.648035   -0.100512
     17          6           0       -0.536718    3.928537    0.589548
     18          6           0       -0.259607    2.397268   -1.392036
     19          6           0       -2.553914    2.865616   -0.469355
     20          6           0       -2.624353   -0.290836    0.397651
     21          1           0       -4.707384   -2.937273    0.198558
     22          1           0       -5.120343   -1.245781    0.529849
     23          1           0       -4.892250   -1.794281   -1.134431
     24          1           0       -2.369228   -3.494661   -0.675242
     25          1           0       -0.184798   -4.237886   -0.785225
     26          1           0        0.869231   -3.030986   -1.537629
     27          1           0        1.057208   -3.407377    0.168734
     28          1           0        1.597408   -0.197644   -1.704732
     29          1           0        3.642075    0.602795   -2.540967
     30          1           0        5.071348    0.716866   -1.503551
     31          1           0        4.562238   -0.865258   -2.137605
     32          1           0        4.979884    0.085559    0.763682
     33          1           0        3.707327   -0.514212    2.765081
     34          1           0        1.548547   -1.858510    2.092245
     35          1           0        1.163173   -0.196897    2.456332
     36          1           0       -1.482002    1.717687    1.809898
     37          1           0       -0.637031    4.796876   -0.073387
     38          1           0       -1.094739    4.140959    1.510396
     39          1           0        0.523234    3.823031    0.851839
     40          1           0       -0.382703    3.237314   -2.087593
     41          1           0       -0.597830    1.485826   -1.897821
     42          1           0        0.808049    2.289377   -1.172182
     43          1           0       -3.166677    3.028996    0.426726
     44          1           0       -2.656820    3.750231   -1.110603
     45          1           0       -2.963287    2.008593   -1.013269
     46          1           0       -3.371901    0.438986    0.694125
     47          1           0        0.163821    1.473384    1.229529
 ---------------------------------------------------------------------

 SCF Done:  E(RB3LYP) =  -794.828045292     A.U. after   15 cycles

 Excitation energies and oscillator strengths:

 Excited State   1:      Triplet-A      2.8434 eV  436.04 nm  f=0.0000  <S**2>=2.000
      71 -> 78         0.14169
      74 -> 75         0.39718
      74 -> 77         0.56696
 This state for optimization and/or second-order correction.
 Total Energy, E(TD-HF/TD-DFT) =  -794.723552279
 Copying the excited state density for this state as the 1-particle RhoCI density.

 Excited State   2:      Triplet-A      3.6126 eV  343.20 nm  f=0.0000  <S**2>=2.000
      72 -> 75         0.17256
      72 -> 76         0.40376
      73 -> 75         0.43339
      73 -> 76        -0.20383
      73 -> 77        -0.18121
      74 -> 75        -0.12455
      74 -> 77         0.11290

 Excited State   3:      Triplet-A      3.9351 eV  315.07 nm  f=0.0000  <S**2>=2.000
      71 -> 75         0.20445
      71 -> 77         0.29078
      72 -> 76        -0.10769
      74 -> 75        -0.29832
      74 -> 76         0.10803
      74 -> 77         0.19988
      74 -> 78         0.44147

 Excited State   4:      Singlet-A      3.9810 eV  311.44 nm  f=0.0229  <S**2>=0.000
      74 -> 75         0.70038

 Excited State   5:      Singlet-A      4.1822 eV  296.45 nm  f=0.0008  <S**2>=0.000
      74 -> 76         0.69793

 Excited State   6:      Singlet-A      4.3607 eV  284.32 nm  f=0.0640  <S**2>=0.000
      74 -> 77         0.70098

 The electronic state is 1-A.
 Alpha  occ. eigenvalues --  -14.35471 -10.21917 -10.20806 -10.20631 -10.18916
 Alpha  occ. eigenvalues --  -10.18330 -10.18260 -10.18105 -10.17843 -10.17776
 Alpha  occ. eigenvalues --  -10.17264 -10.17039 -10.16662 -10.16659 -10.16567
 Alpha  occ. eigenvalues --  -10.16566 -10.16444 -10.15866 -10.15668 -10.15451
 Alpha  occ. eigenvalues --   -0.95375  -0.85489  -0.81162  -0.80261  -0.77372
 Alpha  occ. eigenvalues --   -0.75980  -0.74708  -0.71231  -0.68790  -0.67810
 Alpha  occ. eigenvalues --   -0.67619  -0.67220  -0.66449  -0.62936  -0.61020
 Alpha  occ. eigenvalues --   -0.56908  -0.55704  -0.52285  -0.51395  -0.48989
 Alpha  occ. eigenvalues --   -0.47724  -0.47431  -0.45442  -0.45143  -0.44388
 Alpha  occ. eigenvalues --   -0.43714  -0.43295  -0.42421  -0.41480  -0.41213
 Alpha  occ. eigenvalues --   -0.40954  -0.40327  -0.40209  -0.39626  -0.39451
 Alpha  occ. eigenvalues --   -0.38893  -0.38423  -0.36961  -0.36812  -0.35815
 Alpha  occ. eigenvalues --   -0.35508  -0.35296  -0.34435  -0.33566  -0.33439
 Alpha  occ. eigenvalues --   -0.32772  -0.31297  -0.30669  -0.30571  -0.30093
 Alpha  occ. eigenvalues --   -0.25172  -0.22387  -0.22016  -0.16422
 Alpha virt. eigenvalues --    0.00871   0.01420   0.02162   0.07238   0.08254
 Alpha virt. eigenvalues --    0.09241   0.11099   0.11223   0.12209   0.12495
 Alpha virt. eigenvalues --    0.13155   0.13445   0.14256   0.14508   0.14704

 Mulliken charges:
               1
     1  C   -0.481499
     2  C    0.134030
     3  C   -0.203503
     4  C    0.107090
     5  C   -0.468531
     6  C   -0.092041
     7  C   -0.010392
     8  C    0.119946
     9  N   -0.609403
    10  C   -0.240043
    11  C    0.136047
    12  C   -0.153163
    13  C   -0.305459
    14  C    0.108118
    15  C   -0.302494
    16  C    0.048629
    17  C   -0.389118
    18  C   -0.400722
    19  C   -0.396802
    20  C   -0.212171
    21  H    0.144371
    22  H    0.142140
    23  H    0.152557
    24  H    0.110541
    25  H    0.133280
    26  H    0.147277
    27  H    0.153768
    28  H    0.139118
    29  H    0.153764
    30  H    0.151479
    31  H    0.149004
    32  H    0.129526
    33  H    0.108507
    34  H    0.133869
    35  H    0.135618
    36  H    0.123139
    37  H    0.123328
    38  H    0.124131
    39  H    0.129413
    40  H    0.118543
    41  H    0.135296
    42  H    0.134857
    43  H    0.120059
    44  H    0.122231
    45  H    0.139284
    46  H    0.117173
    47  H    0.139210
 Sum of Mulliken charges =  -0.00000

 Dipole moment (field-independent basis, Debye):
    X=              1.3101    Y=              0.0886    Z=             -1.2200  Tot=              1.7924
 Quadrupole moment (field-independent basis, Debye-Ang):
   XX=           -110.9408   YY=           -123.4161   ZZ=           -121.3494
   XY=              1.6307   XZ=             -4.4248   YZ=              1.0563

 Normal termination of Gaussian 16 at Fri Jun 13 11:31:42 2025.
