 Gaussian 16, Revision C.02,
 Gaussian 16:  ES64L-G16RevC.02  7-Dec-2021

 ----------------------------------
 # td=(50-50,nstates=3) b3lyp/6-31g
 ----------------------------------

 ----------
 [No Title]
 ----------
 Symbolic Z-matrix:
 Charge =  0 Multiplicity = 1

                         Standard orientation:
 ---------------------------------------------------------------------
 Center     Atomic      Atomic             Coordinates (Angstroms)
 Number     Number       Type             X           Y           Z
 ---------------------------------------------------------------------
      1          6           0        2.623938   -2.332048    1.531055
      2          6           0        2.233735   -2.387253    0.028918
      3          6           0        3.517348   -2.286228   -0.839062
      4          6           0        1.533588   -3.732394   -0.260584
      5          6           0        1.317435   -1.212862   -0.292207
      6          6           0        0.065723   -1.242525   -0.771104
      7          6           0       -0.773040   -0.004437   -1.041678
      8          6           0       -2.081355   -0.017164   -0.249854
      9          6           0       -3.265916   -0.040430   -0.895159
     10          7           0       -4.508988   -0.086038   -0.248497
     11          6           0       -5.742147    0.123808   -0.997586
     12          6           0       -4.511979   -0.083717    1.153226
     13          6           0       -3.383601   -0.061335    1.885969
     14          6           0       -1.999480   -0.019025    1.270481
     15          6           0        0.048002    1.242457   -0.757962
     16          6           0        1.300251    1.225442   -0.279829
     17          6           0        2.199997    2.409358    0.053032
     18          6           0        2.590793    2.344785    1.554639
     19          6           0        1.481267    3.747406   -0.223400
     20          6           0        3.485010    2.334743   -0.815575
     21          8           0        1.972320    0.009720   -0.020142
     22          1           0        1.735162   -2.422848    2.166258
     23          1           0        3.121868   -1.388422    1.769779
     24          1           0        3.304884   -3.157249    1.771986
     25          1           0        3.270406   -2.343002   -1.905591
     26          1           0        4.037711   -1.342159   -0.656560
     27          1           0        4.197815   -3.112096   -0.599189
     28          1           0        1.258014   -3.822591   -1.317362
     29          1           0        0.628243   -3.852198    0.344925
     30          1           0        2.213200   -4.556944   -0.018159
     31          1           0       -0.402838   -2.198436   -0.970193
     32          1           0       -1.057101   -0.001210   -2.109449
     33          1           0       -3.317996   -0.040002   -1.980036
     34          1           0       -5.659008   -0.341381   -1.984874
     35          1           0       -6.577364   -0.349504   -0.472276
     36          1           0       -5.982480    1.189372   -1.137871
     37          1           0       -5.496006   -0.115371    1.608518
     38          1           0       -3.462661   -0.088545    2.968248
     39          1           0       -1.438321    0.866312    1.620515
     40          1           0       -1.393494   -0.878201    1.610831
     41          1           0       -0.433804    2.193794   -0.947184
     42          1           0        1.700789    2.416743    2.190543
     43          1           0        3.101915    1.405930    1.784091
     44          1           0        3.260054    3.177046    1.803878
     45          1           0        1.204404    3.844015   -1.279277
     46          1           0        0.574409    3.848732    0.383243
     47          1           0        2.149370    4.578917    0.027093
     48          1           0        4.018141    1.396051   -0.642497
     49          1           0        3.237516    2.398944   -1.881558
     50          1           0        4.154104    3.167342   -0.567129
 ---------------------------------------------------------------------

 SCF Done:  E(RB3LYP) =  -871.185444893     A.U. after   16 cycles

 Excitation energies and oscillator strengths:

 Excited State   1:      Triplet-A      2.8323 eV  437.75 nm  f=0.0000  <S**2>=2.000
      77 -> 84         0.10106
      79 -> 80         0.60316
      79 -> 81         0.34318
 This state for optimization and/or second-order correction.
 Total Energy, E(TD-HF/TD-DFT) =  -871.081360304
 Copying the excited state density for this state as the 1-particle RhoCI density.

 Excited State   2:      Triplet-A      3.6278 eV  341.76 nm  f=0.0000  <S**2>=2.000
      76 -> 82         0.15263
      77 -> 82         0.15154
      78 -> 80         0.59024
      78 -> 81        -0.31375

 Excited State   3:      Singlet-A      3.8955 eV  318.27 nm  f=0.0603  <S**2>=0.000
      79 -> 80         0.70571

 Excited State   4:      Triplet-A      3.9550 eV  313.49 nm  f=0.0000  <S**2>=2.000
      76 -> 80        -0.18006
      76 -> 81        -0.16788
      77 -> 80         0.28153
      77 -> 81         0.17557
      79 -> 80         0.14206
      79 -> 81        -0.27407
      79 -> 84         0.46183
      79 -> 86         0.10548

 Excited State   5:      Singlet-A      4.8237 eV  257.03 nm  f=0.0017  <S**2>=0.000
      78 -> 80         0.70326

 Excited State   6:      Singlet-A      4.8731 eV  254.42 nm  f=0.0225  <S**2>=0.000
      79 -> 81         0.70252

 The electronic state is 1-A.
 Alpha  occ. eigenvalues --  -19.17097 -14.35098 -10.23345 -10.23333 -10.21686
 Alpha  occ. eigenvalues --  -10.20406 -10.20298 -10.20038 -10.20024 -10.19222
 Alpha  occ. eigenvalues --  -10.17042 -10.16859 -10.16786 -10.16776 -10.16570
 Alpha  occ. eigenvalues --  -10.16545 -10.16137 -10.16127 -10.16111 -10.16099
 Alpha  occ. eigenvalues --  -10.16074  -1.05972  -0.95023  -0.83227  -0.82200
 Alpha  occ. eigenvalues --   -0.80766  -0.77813  -0.74743  -0.73913  -0.70797
 Alpha  occ. eigenvalues --   -0.68644  -0.68322  -0.67927  -0.67810  -0.65971
 Alpha  occ. eigenvalues --   -0.62630  -0.62503  -0.59865  -0.56478  -0.53675
 Alpha  occ. eigenvalues --   -0.51167  -0.49339  -0.48161  -0.47637  -0.47128
 Alpha  occ. eigenvalues --   -0.45634  -0.45630  -0.44904  -0.44105  -0.43265
 Alpha  occ. eigenvalues --   -0.42932  -0.42190  -0.41869  -0.41758  -0.40521
 Alpha  occ. eigenvalues --   -0.40433  -0.40221  -0.38813  -0.38263  -0.38222
 Alpha  occ. eigenvalues --   -0.38069  -0.36419  -0.35940  -0.35784  -0.35592
 Alpha  occ. eigenvalues --   -0.35574  -0.34859  -0.33622  -0.33079  -0.32917
 Alpha  occ. eigenvalues --   -0.32252  -0.32132  -0.31875  -0.31489  -0.30382
 Alpha  occ. eigenvalues --   -0.25556  -0.24260  -0.19818  -0.16049
 Alpha virt. eigenvalues --    0.00838   0.04303   0.05935   0.07454   0.07909
 Alpha virt. eigenvalues --    0.09589   0.09956   0.11571   0.12124   0.12288
 Alpha virt. eigenvalues --    0.13162   0.13203   0.13667   0.13929   0.14139

 Mulliken charges:
               1
     1  C   -0.394198
     2  C   -0.029268
     3  C   -0.393915
     4  C   -0.399720
     5  C    0.363633
     6  C   -0.150416
     7  C   -0.285616
     8  C    0.129187
     9  C    0.064101
    10  N   -0.605373
    11  C   -0.239532
    12  C    0.134237
    13  C   -0.155418
    14  C   -0.317673
    15  C   -0.150242
    16  C    0.363528
    17  C   -0.029296
    18  C   -0.394165
    19  C   -0.399652
    20  C   -0.393948
    21  O   -0.627510
    22  H    0.132193
    23  H    0.155351
    24  H    0.124758
    25  H    0.130663
    26  H    0.155412
    27  H    0.124973
    28  H    0.134391
    29  H    0.137297
    30  H    0.129424
    31  H    0.128435
    32  H    0.129291
    33  H    0.125003
    34  H    0.150974
    35  H    0.150791
    36  H    0.147229
    37  H    0.127402
    38  H    0.105794
    39  H    0.134643
    40  H    0.135487
    41  H    0.127509
    42  H    0.132114
    43  H    0.155489
    44  H    0.124748
    45  H    0.134327
    46  H    0.136895
    47  H    0.129484
    48  H    0.155569
    49  H    0.130654
    50  H    0.124957
 Sum of Mulliken charges =  -0.00000

 Dipole moment (field-independent basis, Debye):
    X=             -1.6111    Y=              0.1631    Z=             -0.8816  Tot=              1.8438
 Quadrupole moment (field-independent basis, Debye-Ang):
   XX=           -115.8569   YY=           -127.5385   ZZ=           -128.1715
   XY=             -0.7659   XZ=              4.7350   YZ=             -0.0860

 1\1\GINC-N2\SP\RB3LYP TD-FC\6-31G\C19H29N1O1\HPCMGAC13\13-Jun-2025\0\\
 # td=(50-50,nstates=3) b3lyp/6-31g\\[No Title]\\0,1\C,0,-2.623938,2.33
 2048,1.531055\C,0,-2.233735,2.387253,0.028918\C,0,-3.517348,2.286228,-
 0.839062\C,0,-1.533588,3.732394,-0.260584\C,0,-1.317435,1.212862,-0.29
 2207\C,0,-0.065723,1.242525,-0.771104\C,0,0.77304,0.004437,-1.041678\C
 ,0,2.081355,0.017164,-0.249854\C,0,3.265916,0.04043,-0.895159\N,0,4.50
 8988,0.086038,-0.248497\C,0,5.742147,-0.123808,-0.997586\C,0,4.511979,
 0.083717,1.153226\C,0,3.383601,0.061335,1.885969\C,0,1.99948,0.019025,

 Normal termination of Gaussian 16 at Fri Jun 13 11:33:26 2025.
