 Gaussian 16, Revision C.02,
 Gaussian 16:  ES64L-G16RevC.02  7-Dec-2021

 ----------------------------------
 # td=(50-50,nstates=3) b3lyp/6-31g
 ----------------------------------

 ----------
 [No Title]
 ----------
 Symbolic Z-matrix:
 Charge =  0 Multiplicity = 1

                         Standard orientation:
 ---------------------------------------------------------------------
 Center     Atomic      Atomic             Coordinates (Angstroms)
 Number     Number       Type             X           Y           Z
 ---------------------------------------------------------------------
      1          6           0        4.932945    0.013364   -0.297968
      2          6           0        3.423451    0.007953   -0.187555
      3          6           0        2.708172   -1.195759   -0.138271
      4          6           0        1.311793   -1.221761   -0.004674
      5          6           0        0.590543   -2.553820    0.032797
      6          6           0        0.596077   -0.002431    0.077870
      7          6           0       -0.890614   -0.007876    0.261377
      8          6           0       -1.723839   -0.037795   -0.800686
      9          7           0       -3.121738   -0.075190   -0.698924
     10          6           0       -3.954927    0.117806   -1.880560
     11          6           0       -3.682596   -0.052777    0.584520
     12          6           0       -2.941431   -0.023409    1.707181
     13          6           0       -1.426547    0.002663    1.694231
     14          6           0        1.305900    1.222327    0.026392
     15          6           0        0.577635    2.548960    0.096882
     16          6           0        2.702063    1.206665   -0.108311
     17          1           0        5.298536   -0.869471   -0.833760
     18          1           0        5.292760    0.902957   -0.826577
     19          1           0        5.406492    0.011040    0.693691
     20          1           0        3.247365   -2.137792   -0.205417
     21          1           0        1.305610   -3.382555    0.046253
     22          1           0       -0.049003   -2.645937    0.918535
     23          1           0       -0.061933   -2.685409   -0.838559
     24          1           0       -3.486509   -0.361892   -2.745478
     25          1           0       -4.931136   -0.350954   -1.723493
     26          1           0       -4.116697    1.180059   -2.120911
     27          1           0       -4.766771   -0.073367    0.610357
     28          1           0       -3.446287   -0.032691    2.668000
     29          1           0       -1.042788    0.885899    2.237208
     30          1           0       -1.015695   -0.857948    2.253705
     31          1           0        1.284449    3.383638    0.053606
     32          1           0       -0.134033    2.663063   -0.728924
     33          1           0        3.236358    2.152797   -0.153475
     34          1           0       -0.000096    2.647399    1.024122
     35          1           0       -1.340207   -0.047165   -1.815769
 ---------------------------------------------------------------------

 SCF Done:  E(RB3LYP) =  -637.615762327     A.U. after   15 cycles

 Excitation energies and oscillator strengths:

 Excited State   1:      Triplet-A      2.8612 eV  433.33 nm  f=0.0000  <S**2>=2.000
      55 -> 62         0.14716
      58 -> 59         0.12434
      58 -> 60         0.46971
      58 -> 61         0.49363
 This state for optimization and/or second-order correction.
 Total Energy, E(TD-HF/TD-DFT) =  -637.510615640
 Copying the excited state density for this state as the 1-particle RhoCI density.

 Excited State   2:      Triplet-A      3.6433 eV  340.31 nm  f=0.0000  <S**2>=2.000
      56 -> 60        -0.32091
      56 -> 61         0.28684
      57 -> 59         0.55180

 Excited State   3:      Triplet-A      3.9742 eV  311.97 nm  f=0.0000  <S**2>=2.000
      55 -> 60         0.28196
      55 -> 61         0.30208
      58 -> 59        -0.15354
      58 -> 62         0.53170

 Excited State   4:      Singlet-A      4.0307 eV  307.60 nm  f=0.0032  <S**2>=0.000
      58 -> 59         0.70405

 Excited State   5:      Singlet-A      4.2783 eV  289.80 nm  f=0.0498  <S**2>=0.000
      58 -> 60         0.68860
      58 -> 61         0.15006

 Excited State   6:      Singlet-A      4.3497 eV  285.04 nm  f=0.0323  <S**2>=0.000
      58 -> 60        -0.15173
      58 -> 61         0.68879

 The electronic state is 1-A.
 Alpha  occ. eigenvalues --  -14.35391 -10.21870 -10.20766 -10.20618 -10.18252
 Alpha  occ. eigenvalues --  -10.18245 -10.18195 -10.17805 -10.17591 -10.17228
 Alpha  occ. eigenvalues --  -10.16980 -10.16574 -10.16568 -10.16503 -10.16464
 Alpha  occ. eigenvalues --  -10.16400  -0.95316  -0.85351  -0.80222  -0.77344
 Alpha  occ. eigenvalues --   -0.76923  -0.74827  -0.71198  -0.69168  -0.67470
 Alpha  occ. eigenvalues --   -0.66842  -0.62918  -0.60943  -0.56343  -0.55560
 Alpha  occ. eigenvalues --   -0.51619  -0.48972  -0.47560  -0.47353  -0.45337
 Alpha  occ. eigenvalues --   -0.45088  -0.42471  -0.41966  -0.41519  -0.41319
 Alpha  occ. eigenvalues --   -0.40453  -0.40088  -0.39799  -0.39666  -0.39267
 Alpha  occ. eigenvalues --   -0.38907  -0.38362  -0.35803  -0.35501  -0.34593
 Alpha  occ. eigenvalues --   -0.33378  -0.32382  -0.31901  -0.30917  -0.25197
 Alpha  occ. eigenvalues --   -0.22439  -0.21913  -0.16389
 Alpha virt. eigenvalues --    0.01157   0.01866   0.02081   0.07231   0.08755
 Alpha virt. eigenvalues --    0.10600   0.11171   0.12372   0.13145   0.13245
 Alpha virt. eigenvalues --    0.13419   0.14279   0.14723   0.16141   0.16656

 Mulliken charges:
               1
     1  C   -0.482508
     2  C    0.138932
     3  C   -0.207991
     4  C    0.111593
     5  C   -0.470741
     6  C   -0.093778
     7  C   -0.003852
     8  C    0.116394
     9  N   -0.604310
    10  C   -0.240410
    11  C    0.135469
    12  C   -0.151593
    13  C   -0.307953
    14  C    0.111295
    15  C   -0.471355
    16  C   -0.208078
    17  H    0.142541
    18  H    0.142634
    19  H    0.153580
    20  H    0.109813
    21  H    0.133560
    22  H    0.152971
    23  H    0.151403
    24  H    0.153051
    25  H    0.151507
    26  H    0.148545
    27  H    0.129280
    28  H    0.107836
    29  H    0.134260
    30  H    0.134956
    31  H    0.133811
    32  H    0.150465
    33  H    0.109780
    34  H    0.152148
    35  H    0.136745
 Sum of Mulliken charges =  -0.00000

 Dipole moment (field-independent basis, Debye):
    X=             -1.3191    Y=              0.1407    Z=             -1.1922  Tot=              1.7835
 Quadrupole moment (field-independent basis, Debye-Ang):
   XX=            -84.8228   YY=            -95.7222   ZZ=            -94.5566
   XY=             -0.4363   XZ=              4.1020   YZ=             -0.0228

 Normal termination of Gaussian 16 at Fri Jun 13 11:32:56 2025.
