 Gaussian 16, Revision C.02,
 Gaussian 16:  ES64L-G16RevC.02  7-Dec-2021

 ----------------------------------
 # td=(50-50,nstates=3) b3lyp/6-31g
 ----------------------------------

 ----------
 [No Title]
 ----------
 Symbolic Z-matrix:
 Charge =  0 Multiplicity = 1

                         Standard orientation:
 ---------------------------------------------------------------------
 Center     Atomic      Atomic             Coordinates (Angstroms)
 Number     Number       Type             X           Y           Z
 ---------------------------------------------------------------------
      1          6           0       -0.797947    4.703770   -0.693418
      2          6           0       -1.651784    3.465501   -0.528290
      3          6           0       -2.312244    2.888791   -1.622864
      4          6           0       -3.077058    1.731063   -1.458138
      5          6           0       -3.207076    1.114106   -0.202481
      6          6           0       -4.056747   -0.108744   -0.073612
      7          6           0       -5.415435    0.017311   -0.168682
      8          7           0       -6.288315   -1.057947   -0.080191
      9          6           0       -7.739550   -0.842080   -0.094936
     10          6           0       -5.761195   -2.323556    0.134458
     11          6           0       -4.420602   -2.527609    0.230750
     12          6           0       -3.466631   -1.437945    0.114145
     13          6           0       -2.126080   -1.664873    0.150375
     14          6           0       -0.898274   -1.928919    0.156570
     15          6           0        0.418424   -2.236845    0.151673
     16          6           0        1.494020   -1.268597    0.060556
     17          6           0        2.840829   -1.576451   -0.047594
     18          6           0        3.406526   -2.979782   -0.414813
     19          6           0        4.850542   -2.889837   -0.996481
     20          6           0        2.579066   -3.649556   -1.553694
     21          6           0        3.452522   -3.892069    0.842262
     22          6           0        3.800404   -0.512451    0.341436
     23          8           0        4.923422   -0.810733    0.842986
     24          6           0        3.426145    0.923875    0.162056
     25          6           0        4.535200    1.995000    0.136598
     26          6           0        3.972152    3.378101   -0.268246
     27          6           0        5.630238    1.604870   -0.894054
     28          6           0        5.176144    2.127244    1.547759
     29          6           0        2.112986    1.211842    0.071650
     30          6           0        1.044109    0.176297    0.163108
     31          6           0       -2.553034    1.686437    0.916469
     32          6           0       -1.792897    2.850347    0.726754
     33          1           0       -1.154339    5.328384   -1.519423
     34          1           0       -0.795697    5.313592    0.216398
     35          1           0        0.246652    4.442275   -0.911759
     36          1           0       -2.228527    3.344508   -2.605346
     37          1           0       -5.878523    0.985137   -0.315425
     38          1           0       -7.977190    0.008029   -0.738603
     39          1           0       -8.236884   -1.727540   -0.497634
     40          1           0       -8.129137   -0.643861    0.911455
     41          1           0       -6.480063   -3.129245    0.211675
     42          1           0       -4.046003   -3.532392    0.380887
     43          1           0        0.676997   -3.278477    0.293209
     44          1           0        4.886372   -2.197515   -1.847036
     45          1           0        5.569784   -2.554875   -0.252436
     46          1           0        5.142922   -3.882368   -1.360199
     47          1           0        1.551291   -3.892183   -1.286971
     48          1           0        2.547854   -2.994956   -2.432756
     49          1           0        3.073437   -4.583581   -1.846455
     50          1           0        2.458062   -4.044881    1.276526
     51          1           0        3.864857   -4.876046    0.582817
     52          1           0        4.093349   -3.438481    1.604881
     53          1           0        3.486403    3.345621   -1.251203
     54          1           0        3.249399    3.756320    0.464682
     55          1           0        4.794320    4.100806   -0.322058
     56          1           0        5.204016    1.519717   -1.901577
     57          1           0        6.407653    2.378563   -0.919422
     58          1           0        6.096481    0.654472   -0.627285
     59          1           0        4.421935    2.426224    2.286327
     60          1           0        5.614176    1.177559    1.857961
     61          1           0        5.959466    2.896309    1.530061
     62          1           0        1.767736    2.235123   -0.035542
     63          1           0        0.487660    0.317663    1.103823
     64          1           0        0.287845    0.357619   -0.615823
     65          1           0       -1.304006    3.297067    1.589199
     66          6           0       -2.680488    1.084922    2.298850
     67          1           0       -3.730597    0.934517    2.576690
     68          1           0       -2.192306    0.104760    2.352967
     69          1           0       -2.221470    1.733659    3.050843
     70          1           0       -3.576665    1.288996   -2.314991
 ---------------------------------------------------------------------

 SCF Done:  E(RB3LYP) =  -1333.14212282     A.U. after   20 cycles

 Excitation energies and oscillator strengths:

 Excited State   1:      Triplet-A      1.0805 eV 1147.42 nm  f=0.0000  <S**2>=2.000
     119 ->120         0.71838
     119 ->122        -0.11130
     119 <-120         0.19504
 This state for optimization and/or second-order correction.
 Total Energy, E(TD-HF/TD-DFT) =  -1333.10241337
 Copying the excited state density for this state as the 1-particle RhoCI density.

 Excited State   2:      Triplet-A      2.4828 eV  499.36 nm  f=0.0000  <S**2>=2.000
     119 ->121         0.67199

 Excited State   3:      Triplet-A      2.6770 eV  463.15 nm  f=0.0000  <S**2>=2.000
     118 ->120         0.61268
     118 ->122         0.32900

 Excited State   4:      Singlet-A      2.7313 eV  453.94 nm  f=1.0015  <S**2>=0.000
     119 ->120         0.68019
     119 ->122         0.18022
     119 <-120        -0.12224

 Excited State   5:      Singlet-A      2.9891 eV  414.79 nm  f=0.0215  <S**2>=0.000
     119 ->121         0.69807

 Excited State   6:      Singlet-A      3.0131 eV  411.48 nm  f=0.0016  <S**2>=0.000
     118 ->120         0.66006
     118 ->122         0.23883

 The electronic state is 1-A.
 Alpha  occ. eigenvalues --  -19.09524 -14.41455 -10.25495 -10.25219 -10.25035
 Alpha  occ. eigenvalues --  -10.24213 -10.22771 -10.21679 -10.20773 -10.20141
 Alpha  occ. eigenvalues --  -10.19984 -10.19967 -10.19400 -10.19097 -10.18952
 Alpha  occ. eigenvalues --  -10.18535 -10.18420 -10.18388 -10.18256 -10.18116
 Alpha  occ. eigenvalues --  -10.17685 -10.17679 -10.17670 -10.17616 -10.17593
 Alpha  occ. eigenvalues --  -10.17369 -10.17289 -10.15406 -10.14496 -10.14489
 Alpha  occ. eigenvalues --  -10.14211 -10.13966 -10.13251  -1.00820  -0.99985
 Alpha  occ. eigenvalues --   -0.87437  -0.84769  -0.83994  -0.80924  -0.80836
 Alpha  occ. eigenvalues --   -0.78697  -0.78093  -0.77698  -0.76325  -0.75672
 Alpha  occ. eigenvalues --   -0.72534  -0.70544  -0.69942  -0.69207  -0.68324
 Alpha  occ. eigenvalues --   -0.66845  -0.66419  -0.65974  -0.65628  -0.65212
 Alpha  occ. eigenvalues --   -0.64416  -0.60443  -0.58701  -0.58235  -0.57332
 Alpha  occ. eigenvalues --   -0.55937  -0.54788  -0.52778  -0.52588  -0.50753
 Alpha  occ. eigenvalues --   -0.49892  -0.49424  -0.47939  -0.47907  -0.46904
 Alpha  occ. eigenvalues --   -0.46446  -0.45472  -0.44946  -0.44453  -0.44208
 Alpha  occ. eigenvalues --   -0.43629  -0.43381  -0.42672  -0.42322  -0.41668
 Alpha  occ. eigenvalues --   -0.41442  -0.41368  -0.41230  -0.41130  -0.40711
 Alpha  occ. eigenvalues --   -0.40030  -0.39670  -0.39629  -0.38960  -0.38852
 Alpha  occ. eigenvalues --   -0.38183  -0.37923  -0.37138  -0.36852  -0.36220
 Alpha  occ. eigenvalues --   -0.35599  -0.35256  -0.34909  -0.34484  -0.34291
 Alpha  occ. eigenvalues --   -0.34154  -0.33923  -0.33743  -0.33194  -0.31330
 Alpha  occ. eigenvalues --   -0.31094  -0.30689  -0.30263  -0.30013  -0.29430
 Alpha  occ. eigenvalues --   -0.29053  -0.28696  -0.25197  -0.24870  -0.23988
 Alpha  occ. eigenvalues --   -0.23438  -0.23036  -0.20776  -0.16055
 Alpha virt. eigenvalues --   -0.06455  -0.02574  -0.01472  -0.00234   0.00112
 Alpha virt. eigenvalues --    0.03687   0.04448   0.06148   0.08011   0.08775
 Alpha virt. eigenvalues --    0.09256   0.09705   0.09920   0.10546   0.11293

 Mulliken charges:
               1
     1  C   -0.487338
     2  C    0.133894
     3  C   -0.169199
     4  C   -0.112253
     5  C   -0.036281
     6  C    0.009916
     7  C    0.087563
     8  N   -0.592310
     9  C   -0.250204
    10  C    0.122917
    11  C   -0.105109
    12  C    0.154545
    13  C   -0.274518
    14  C   -0.154532
    15  C   -0.142998
    16  C    0.096274
    17  C    0.058614
    18  C   -0.002291
    19  C   -0.401593
    20  C   -0.390033
    21  C   -0.398291
    22  C    0.186229
    23  O   -0.478978
    24  C    0.154536
    25  C   -0.019887
    26  C   -0.399489
    27  C   -0.406103
    28  C   -0.396600
    29  C   -0.153160
    30  C   -0.381304
    31  C    0.147294
    32  C   -0.220888
    33  H    0.146479
    34  H    0.148011
    35  H    0.164874
    36  H    0.122327
    37  H    0.170569
    38  H    0.171878
    39  H    0.169824
    40  H    0.175689
    41  H    0.160074
    42  H    0.157715
    43  H    0.157967
    44  H    0.117085
    45  H    0.179554
    46  H    0.107134
    47  H    0.124551
    48  H    0.129564
    49  H    0.119452
    50  H    0.122689
    51  H    0.119184
    52  H    0.157346
    53  H    0.126098
    54  H    0.122864
    55  H    0.126656
    56  H    0.119596
    57  H    0.117361
    58  H    0.170016
    59  H    0.114785
    60  H    0.179713
    61  H    0.113434
    62  H    0.125491
    63  H    0.174226
    64  H    0.179137
    65  H    0.121272
    66  C   -0.480755
    67  H    0.143911
    68  H    0.174976
    69  H    0.141056
    70  H    0.129776
 Sum of Mulliken charges =  -0.00000

 Dipole moment (field-independent basis, Debye):
    X=            -12.8175    Y=              1.5115    Z=             -0.8358  Tot=             12.9333
 Quadrupole moment (field-independent basis, Debye-Ang):
   XX=           -163.5456   YY=           -189.9529   ZZ=           -200.3553
   XY=             15.3423   XZ=             -4.7931   YZ=             -1.2985

 1\1\GINC-N2\SP\RB3LYP TD-FC\6-31G\C31H37N1O1\HPCMGAC13\13-Jun-2025\0\\
 # td=(50-50,nstates=3) b3lyp/6-31g\\[No Title]\\0,1\C,0,0.797947,4.703
 77,0.693418\C,0,1.651784,3.465501,0.52829\C,0,2.312244,2.888791,1.6228
 64\C,0,3.077058,1.731063,1.458138\C,0,3.207076,1.114106,0.202481\C,0,4
 .056747,-0.108744,0.073612\C,0,5.415435,0.017311,0.168682\N,0,6.288315
 ,-1.057947,0.080191\C,0,7.73955,-0.84208,0.094936\C,0,5.761195,-2.3235
 56,-0.134458\C,0,4.420602,-2.527609,-0.23075\C,0,3.466631,-1.437945,-0
 .114145\C,0,2.12608,-1.664873,-0.150375\C,0,0.898274,-1.928919,-0.1565

 Normal termination of Gaussian 16 at Fri Jun 13 11:36:50 2025.
