 Gaussian 16, Revision C.02,
 Gaussian 16:  ES64L-G16RevC.02  7-Dec-2021

 ----------------------------------
 # td=(50-50,nstates=3) b3lyp/6-31g
 ----------------------------------

 ----------
 [No Title]
 ----------
 Symbolic Z-matrix:
 Charge = -1 Multiplicity = 1

                         Standard orientation:
 ---------------------------------------------------------------------
 Center     Atomic      Atomic             Coordinates (Angstroms)
 Number     Number       Type             X           Y           Z
 ---------------------------------------------------------------------
      1          6           0        4.532198   -2.048523    0.147128
      2          6           0        3.077257   -1.630899    0.099619
      3          6           0        2.435066   -1.131349    1.240326
      4          6           0        1.102340   -0.697282    1.207801
      5          6           0        0.464309   -0.129228    2.455835
      6          6           0        0.371621   -0.780496   -0.001418
      7          6           0       -1.064934   -0.352538   -0.047212
      8          6           0       -2.029233   -1.310589   -0.005450
      9          7           0       -3.431421   -1.040790   -0.092021
     10          6           0       -4.304179   -1.843932    0.761122
     11          6           0       -3.781774    0.339330   -0.254339
     12          6           0       -2.853250    1.320691   -0.297317
     13          6           0       -1.416520    1.073730   -0.171957
     14          6           0       -0.505601    2.095370   -0.181321
     15          6           0        0.278581    3.073713   -0.183973
     16          6           0        1.099206    4.191738   -0.190069
     17          8           0        2.373208    4.262040   -0.083775
     18          6           0        1.009990   -1.271598   -1.163661
     19          6           0        0.275920   -1.326910   -2.488037
     20          6           0        2.346828   -1.693768   -1.093068
     21          1           0        4.787072   -2.510113    1.109143
     22          1           0        4.768752   -2.767604   -0.646128
     23          1           0        5.200119   -1.185467    0.015616
     24          1           0        2.986256   -1.064056    2.176239
     25          1           0        1.100488   -0.292591    3.332997
     26          1           0        0.302829    0.949085    2.340917
     27          1           0       -0.516582   -0.581476    2.641427
     28          1           0       -1.779187   -2.365748    0.055279
     29          1           0       -4.059305   -2.905806    0.640617
     30          1           0       -4.220853   -1.593909    1.838129
     31          1           0       -5.347912   -1.696725    0.458932
     32          1           0       -4.843096    0.524864   -0.390209
     33          1           0       -3.178259    2.343290   -0.469576
     34          1           0        0.533765    5.146274   -0.304151
     35          1           0       -0.214135   -0.369932   -2.697324
     36          1           0        0.969285   -1.549425   -3.307202
     37          1           0        2.829704   -2.065991   -1.994741
     38          1           0       -0.511616   -2.090211   -2.489689
 ---------------------------------------------------------------------

 SCF Done:  E(RB3LYP) =  -826.462684527     A.U. after   20 cycles

 Excitation energies and oscillator strengths:

 Excited State   1:      Triplet-A      1.5299 eV  810.39 nm  f=0.0000  <S**2>=2.000
      71 -> 72         0.22774
      71 -> 74         0.66778
      71 <- 74         0.14194
 This state for optimization and/or second-order correction.
 Total Energy, E(TD-HF/TD-DFT) =  -826.406460282
 Copying the excited state density for this state as the 1-particle RhoCI density.

 Excited State   2:      Triplet-A      1.7187 eV  721.37 nm  f=0.0000  <S**2>=2.000
      71 -> 72        -0.46761
      71 -> 74         0.12591
      71 -> 75         0.50282

 Excited State   3:      Singlet-A      1.9534 eV  634.70 nm  f=0.0012  <S**2>=0.000
      71 -> 72         0.70076

 Excited State   4:      Triplet-A      2.0938 eV  592.16 nm  f=0.0000  <S**2>=2.000
      71 -> 72         0.46558
      71 -> 73         0.24939
      71 -> 74        -0.16761
      71 -> 75         0.43215

 Excited State   5:      Singlet-A      2.1991 eV  563.80 nm  f=0.0026  <S**2>=0.000
      71 -> 73         0.70398

 Excited State   6:      Singlet-A      2.4732 eV  501.30 nm  f=0.0057  <S**2>=0.000
      71 -> 74        -0.24223
      71 -> 75         0.65761

 The electronic state is 1-A.
 Alpha  occ. eigenvalues --  -18.92826 -14.22640 -10.10894 -10.08573 -10.08521
 Alpha  occ. eigenvalues --  -10.08433 -10.08024 -10.07871 -10.07765 -10.07680
 Alpha  occ. eigenvalues --  -10.07091 -10.06780 -10.06636 -10.06428 -10.06125
 Alpha  occ. eigenvalues --  -10.05695 -10.05098 -10.03735 -10.02815 -10.00617
 Alpha  occ. eigenvalues --   -0.82261  -0.81924  -0.75183  -0.69437  -0.66784
 Alpha  occ. eigenvalues --   -0.66618  -0.63183  -0.61141  -0.59453  -0.58052
 Alpha  occ. eigenvalues --   -0.56778  -0.56404  -0.51897  -0.49303  -0.46508
 Alpha  occ. eigenvalues --   -0.46176  -0.45179  -0.40154  -0.38346  -0.37287
 Alpha  occ. eigenvalues --   -0.36223  -0.34943  -0.33449  -0.32525  -0.31998
 Alpha  occ. eigenvalues --   -0.31570  -0.30817  -0.30167  -0.30112  -0.29665
 Alpha  occ. eigenvalues --   -0.29491  -0.29046  -0.28926  -0.28821  -0.26886
 Alpha  occ. eigenvalues --   -0.25614  -0.24232  -0.23032  -0.22946  -0.21983
 Alpha  occ. eigenvalues --   -0.21553  -0.20523  -0.19597  -0.15512  -0.13158
 Alpha  occ. eigenvalues --   -0.12265  -0.11559  -0.09654  -0.08506  -0.05983
 Alpha  occ. eigenvalues --    0.01725
 Alpha virt. eigenvalues --    0.11310   0.12077   0.13431   0.13943   0.19478
 Alpha virt. eigenvalues --    0.19644   0.19878   0.21734   0.22474   0.22932
 Alpha virt. eigenvalues --    0.23182   0.23630   0.24418   0.24619   0.25680

 Mulliken charges:
               1
     1  C   -0.481739
     2  C    0.149936
     3  C   -0.213502
     4  C    0.146873
     5  C   -0.470031
     6  C   -0.079763
     7  C    0.046911
     8  C   -0.014231
     9  N   -0.546375
    10  C   -0.233812
    11  C    0.028098
    12  C   -0.085153
    13  C    0.061227
    14  C   -0.256337
    15  C   -0.161594
    16  C    0.093420
    17  O   -0.537496
    18  C    0.146204
    19  C   -0.466657
    20  C   -0.220603
    21  H    0.124980
    22  H    0.122758
    23  H    0.151481
    24  H    0.090346
    25  H    0.103616
    26  H    0.191497
    27  H    0.135817
    28  H    0.103444
    29  H    0.122808
    30  H    0.105020
    31  H    0.119769
    32  H    0.084637
    33  H    0.098468
    34  H    0.032117
    35  H    0.175897
    36  H    0.108556
    37  H    0.086068
    38  H    0.137344
 Sum of Mulliken charges =  -1.00000

 Dipole moment (field-independent basis, Debye):
    X=             -3.1729    Y=            -10.3123    Z=              0.9451  Tot=             10.8307
 Quadrupole moment (field-independent basis, Debye-Ang):
   XX=           -143.4953   YY=           -167.6228   ZZ=           -122.9052
   XY=            -21.8962   XZ=             -1.4731   YZ=              0.6955

 Normal termination of Gaussian 16 at Fri Jun 13 11:34:04 2025.
