 Gaussian 16, Revision C.02,
 Gaussian 16:  ES64L-G16RevC.02  7-Dec-2021

 ----------------------------------
 # td=(50-50,nstates=3) b3lyp/6-31g
 ----------------------------------

 ----------
 [No Title]
 ----------
 Symbolic Z-matrix:
 Charge =  0 Multiplicity = 1

                         Standard orientation:
 ---------------------------------------------------------------------
 Center     Atomic      Atomic             Coordinates (Angstroms)
 Number     Number       Type             X           Y           Z
 ---------------------------------------------------------------------
      1          6           0        6.761372   -1.571019    0.421747
      2          6           0        5.319659   -1.211554    0.815243
      3          6           0        4.659833   -0.213514   -0.154112
      4          6           0        3.215719    0.146724    0.233943
      5          6           0        2.563775    1.148767   -0.750114
      6          6           0        1.154173    1.494074   -0.416075
      7          6           0        0.506879    2.636729   -0.028292
      8          6           0       -0.881141    2.318848    0.151908
      9          6           0       -1.041603    0.977329   -0.123196
     10          6           0       -2.142779    0.039851   -0.124731
     11          6           0       -3.365011    0.399050    0.349126
     12          7           0       -4.479772   -0.433607    0.318897
     13          6           0       -5.704800   -0.062301    1.020315
     14          6           0       -4.334430   -1.716759   -0.232003
     15          6           0       -3.162894   -2.170524   -0.710130
     16          6           0       -1.885037   -1.360047   -0.680199
     17          8           0        0.215441    0.452548   -0.481187
     18          1           0        7.204078   -2.281766    1.129236
     19          1           0        6.795722   -2.026506   -0.576037
     20          1           0        7.398900   -0.678014    0.401231
     21          1           0        5.310318   -0.788210    1.830448
     22          1           0        4.711163   -2.126747    0.858964
     23          1           0        4.669563   -0.636692   -1.170691
     24          1           0        5.267871    0.703791   -0.197468
     25          1           0        3.198568    0.576642    1.245414
     26          1           0        2.602022   -0.763172    0.269803
     27          1           0        2.611887    0.726022   -1.765018
     28          1           0        3.147561    2.078060   -0.769106
     29          1           0        0.963732    3.605746    0.105719
     30          1           0       -1.659836    3.009958    0.435636
     31          1           0       -3.541990    1.382136    0.771252
     32          1           0       -5.839558    1.022643    0.978736
     33          1           0       -6.565012   -0.528562    0.530760
     34          1           0       -5.697569   -0.370574    2.076410
     35          1           0       -5.242115   -2.309075   -0.256967
     36          1           0       -3.126002   -3.162025   -1.149669
     37          1           0       -1.108698   -1.867358   -0.082668
     38          1           0       -1.448017   -1.285344   -1.689354
 ---------------------------------------------------------------------

 SCF Done:  E(RB3LYP) =  -713.992551477     A.U. after   15 cycles

 Excitation energies and oscillator strengths:

 Excited State   1:      Triplet-A      2.1149 eV  586.24 nm  f=0.0000  <S**2>=2.000
      62 -> 65         0.10238
      63 -> 64         0.69309
      63 <- 64         0.10159
 This state for optimization and/or second-order correction.
 Total Energy, E(TD-HF/TD-DFT) =  -713.914830188
 Copying the excited state density for this state as the 1-particle RhoCI density.

 Excited State   2:      Triplet-A      3.3764 eV  367.21 nm  f=0.0000  <S**2>=2.000
      60 -> 65         0.10775
      62 -> 64         0.50789
      62 -> 66         0.13058
      63 -> 65         0.42020
      63 -> 66        -0.11695

 Excited State   3:      Singlet-A      3.4997 eV  354.27 nm  f=0.3487  <S**2>=0.000
      63 -> 64         0.69842

 Excited State   4:      Triplet-A      4.1483 eV  298.88 nm  f=0.0000  <S**2>=2.000
      60 -> 64         0.25057
      61 -> 64        -0.18394
      62 -> 64         0.13290
      62 -> 65         0.34084
      63 -> 66         0.48450

 Excited State   5:      Singlet-A      4.7668 eV  260.10 nm  f=0.0108  <S**2>=0.000
      62 -> 64         0.51136
      63 -> 65        -0.48102

 Excited State   6:      Singlet-A      5.2250 eV  237.29 nm  f=0.3712  <S**2>=0.000
      62 -> 64         0.46135
      63 -> 65         0.49734
      63 -> 66         0.13810

 The electronic state is 1-A.
 Alpha  occ. eigenvalues --  -19.18747 -14.36282 -10.22831 -10.22463 -10.22316
 Alpha  occ. eigenvalues --  -10.21378 -10.20998 -10.18391 -10.18225 -10.17673
 Alpha  occ. eigenvalues --  -10.17170 -10.17123 -10.17104 -10.17040 -10.16864
 Alpha  occ. eigenvalues --  -10.16796 -10.16412  -1.08324  -0.96073  -0.81505
 Alpha  occ. eigenvalues --   -0.80207  -0.78576  -0.77495  -0.75877  -0.72366
 Alpha  occ. eigenvalues --   -0.71029  -0.67337  -0.63458  -0.62592  -0.59989
 Alpha  occ. eigenvalues --   -0.57843  -0.57335  -0.53693  -0.52601  -0.49830
 Alpha  occ. eigenvalues --   -0.47705  -0.47362  -0.46077  -0.45780  -0.44078
 Alpha  occ. eigenvalues --   -0.43202  -0.43079  -0.42386  -0.41448  -0.40889
 Alpha  occ. eigenvalues --   -0.40420  -0.40169  -0.39305  -0.38560  -0.37258
 Alpha  occ. eigenvalues --   -0.36270  -0.35284  -0.34613  -0.33930  -0.33359
 Alpha  occ. eigenvalues --   -0.32971  -0.32410  -0.31778  -0.31569  -0.27759
 Alpha  occ. eigenvalues --   -0.26015  -0.21230  -0.15565
 Alpha virt. eigenvalues --   -0.01261   0.04748   0.07090   0.08632   0.09436
 Alpha virt. eigenvalues --    0.10631   0.11666   0.11942   0.12284   0.12544
 Alpha virt. eigenvalues --    0.13384   0.13978   0.14069   0.15473   0.16064

 Mulliken charges:
               1
     1  C   -0.405447
     2  C   -0.237220
     3  C   -0.232059
     4  C   -0.235653
     5  C   -0.310862
     6  C    0.315150
     7  C   -0.191863
     8  C   -0.140207
     9  C    0.185640
    10  C    0.049597
    11  C    0.104690
    12  N   -0.611301
    13  C   -0.239648
    14  C    0.128809
    15  C   -0.145118
    16  C   -0.310288
    17  O   -0.559427
    18  H    0.129820
    19  H    0.131051
    20  H    0.130279
    21  H    0.123751
    22  H    0.125250
    23  H    0.120714
    24  H    0.117474
    25  H    0.126606
    26  H    0.144929
    27  H    0.147047
    28  H    0.136945
    29  H    0.133105
    30  H    0.129486
    31  H    0.136727
    32  H    0.154202
    33  H    0.154195
    34  H    0.154457
    35  H    0.131763
    36  H    0.110758
    37  H    0.149095
    38  H    0.147553
 Sum of Mulliken charges =  -0.00000

 Dipole moment (field-independent basis, Debye):
    X=             -1.8317    Y=              0.4193    Z=              0.8963  Tot=              2.0819
 Quadrupole moment (field-independent basis, Debye-Ang):
   XX=            -81.2795   YY=            -99.0475   ZZ=           -105.9756
   XY=              1.0113   XZ=             -5.6537   YZ=              2.4438

 1\1\GINC-N2\SP\RB3LYP TD-FC\6-31G\C15H21N1O1\HPCMGAC13\13-Jun-2025\0\\
 # td=(50-50,nstates=3) b3lyp/6-31g\\[No Title]\\0,1\C,0,6.761372,-1.57
 1019,0.421747\C,0,5.319659,-1.211554,0.815243\C,0,4.659833,-0.213514,-
 0.154112\C,0,3.215719,0.146724,0.233943\C,0,2.563775,1.148767,-0.75011
 4\C,0,1.154173,1.494074,-0.416075\C,0,0.506879,2.636729,-0.028292\C,0,
 -0.881141,2.318848,0.151908\C,0,-1.041603,0.977329,-0.123196\C,0,-2.14
 2779,0.039851,-0.124731\C,0,-3.365011,0.39905,0.349126\N,0,-4.479772,-
 0.433607,0.318897\C,0,-5.7048,-0.062301,1.020315\C,0,-4.33443,-1.71675

 Normal termination of Gaussian 16 at Fri Jun 13 11:34:17 2025.
