 Gaussian 16, Revision C.02,
 Gaussian 16:  ES64L-G16RevC.02  7-Dec-2021

 ----------------------------------
 # td=(50-50,nstates=3) b3lyp/6-31g
 ----------------------------------

 ----------
 [No Title]
 ----------
 Symbolic Z-matrix:
 Charge =  0 Multiplicity = 1

                         Standard orientation:
 ---------------------------------------------------------------------
 Center     Atomic      Atomic             Coordinates (Angstroms)
 Number     Number       Type             X           Y           Z
 ---------------------------------------------------------------------
      1          6           0       -1.078809    4.910840   -0.414246
      2          6           0       -0.382150    3.574135   -0.286001
      3          6           0        0.958428    3.496553    0.121819
      4          6           0        1.619968    2.271550    0.274494
      5          6           0        3.071475    2.254631    0.706574
      6          6           0        0.924710    1.063382    0.007918
      7          6           0        1.606504   -0.255770    0.204789
      8          6           0        2.293841   -0.843303   -0.800894
      9          7           0        2.924913   -2.086732   -0.692119
     10          6           0        3.822492   -2.563280   -1.739208
     11          6           0        2.818207   -2.770370    0.528142
     12          6           0        2.160424   -2.271368    1.589922
     13          6           0        1.502265   -0.906231    1.586154
     14          6           0       -0.424992    1.132786   -0.403766
     15          6           0       -1.216828   -0.119897   -0.713288
     16          6           0       -2.198828   -0.526152    0.359027
     17          8           0       -2.245110   -0.099734    1.512303
     18          6           0       -3.220481   -1.589258   -0.087991
     19          9           0       -2.569243   -2.685131   -0.649429
     20          9           0       -4.008611   -2.040102    0.941827
     21          9           0       -4.054909   -1.062449   -1.074020
     22          6           0       -1.055466    2.377918   -0.551525
     23          1           0       -0.415842    5.669424   -0.845584
     24          1           0       -1.968487    4.839234   -1.048321
     25          1           0       -1.404372    5.284329    0.566047
     26          1           0        1.503863    4.415204    0.324109
     27          1           0        3.424393    3.267972    0.921545
     28          1           0        3.219150    1.648987    1.608445
     29          1           0        3.719307    1.827970   -0.068017
     30          1           0        2.377202   -0.372274   -1.775291
     31          1           0        3.467178   -2.219131   -2.715243
     32          1           0        4.856864   -2.212608   -1.604874
     33          1           0        3.829408   -3.657543   -1.750063
     34          1           0        3.289724   -3.746763    0.547460
     35          1           0        2.088469   -2.871839    2.490953
     36          1           0        0.443731   -0.978954    1.887143
     37          1           0        1.953950   -0.247745    2.351613
     38          1           0       -1.775597   -0.008441   -1.652928
     39          1           0       -0.540111   -0.972927   -0.868862
     40          1           0       -2.092047    2.412239   -0.878652
 ---------------------------------------------------------------------

 SCF Done:  E(RB3LYP) =  -1087.84285365     A.U. after   15 cycles

 Excitation energies and oscillator strengths:

 Excited State   1:      Triplet-A      2.0930 eV  592.36 nm  f=0.0000  <S**2>=2.000
      81 -> 82         0.70625
 This state for optimization and/or second-order correction.
 Total Energy, E(TD-HF/TD-DFT) =  -1087.76593565
 Copying the excited state density for this state as the 1-particle RhoCI density.

 Excited State   2:      Singlet-A      2.1324 eV  581.42 nm  f=0.0063  <S**2>=0.000
      81 -> 82         0.70682

 Excited State   3:      Triplet-A      2.8364 eV  437.12 nm  f=0.0000  <S**2>=2.000
      78 -> 86         0.14510
      81 -> 83         0.24611
      81 -> 84        -0.10303
      81 -> 85         0.63989

 Excited State   4:      Triplet-A      3.2226 eV  384.73 nm  f=0.0000  <S**2>=2.000
      77 -> 82         0.64258
      79 -> 82        -0.25684
      80 -> 82         0.12201

 Excited State   5:      Singlet-A      3.6555 eV  339.17 nm  f=0.0002  <S**2>=0.000
      77 -> 82         0.15859
      79 -> 82        -0.23081
      80 -> 82         0.64887

 Excited State   6:      Singlet-A      3.7608 eV  329.67 nm  f=0.0017  <S**2>=0.000
      77 -> 82        -0.25913
      79 -> 82         0.59591
      80 -> 82         0.27618

 The electronic state is 1-A.
 Alpha  occ. eigenvalues --  -24.74158 -24.74147 -24.74102 -19.18545 -14.36274
 Alpha  occ. eigenvalues --  -10.45316 -10.32245 -10.22550 -10.21842 -10.21452
 Alpha  occ. eigenvalues --  -10.21249 -10.20073 -10.19530 -10.19485 -10.19270
 Alpha  occ. eigenvalues --  -10.18440 -10.18364 -10.18177 -10.17911 -10.17806
 Alpha  occ. eigenvalues --  -10.17415 -10.17141  -1.31458  -1.23352  -1.22996
 Alpha  occ. eigenvalues --   -1.09460  -0.96198  -0.87045  -0.81496  -0.81064
 Alpha  occ. eigenvalues --   -0.78305  -0.76800  -0.75710  -0.72047  -0.71607
 Alpha  occ. eigenvalues --   -0.68920  -0.68512  -0.63821  -0.63458  -0.61903
 Alpha  occ. eigenvalues --   -0.59129  -0.58900  -0.57614  -0.56970  -0.52689
 Alpha  occ. eigenvalues --   -0.52360  -0.50183  -0.49711  -0.48360  -0.46855
 Alpha  occ. eigenvalues --   -0.46650  -0.46447  -0.45855  -0.45658  -0.44960
 Alpha  occ. eigenvalues --   -0.44672  -0.43256  -0.43216  -0.42642  -0.42279
 Alpha  occ. eigenvalues --   -0.42027  -0.41836  -0.41664  -0.41128  -0.41015
 Alpha  occ. eigenvalues --   -0.40603  -0.40401  -0.39447  -0.39036  -0.36923
 Alpha  occ. eigenvalues --   -0.36493  -0.35714  -0.34484  -0.33864  -0.33458
 Alpha  occ. eigenvalues --   -0.32185  -0.28905  -0.26155  -0.24077  -0.23312
 Alpha  occ. eigenvalues --   -0.17278
 Alpha virt. eigenvalues --   -0.07271  -0.00343   0.00191   0.01084   0.06511
 Alpha virt. eigenvalues --    0.08066   0.08622   0.10118   0.10645   0.11158
 Alpha virt. eigenvalues --    0.11697   0.12057   0.12595   0.12844   0.12993

 Mulliken charges:
               1
     1  C   -0.482451
     2  C    0.130684
     3  C   -0.196152
     4  C    0.104112
     5  C   -0.470946
     6  C   -0.074018
     7  C   -0.028087
     8  C    0.123006
     9  N   -0.607366
    10  C   -0.240529
    11  C    0.135289
    12  C   -0.152092
    13  C   -0.309753
    14  C    0.135374
    15  C   -0.451271
    16  C    0.316510
    17  O   -0.352035
    18  C    0.740912
    19  F   -0.274516
    20  F   -0.258413
    21  F   -0.275549
    22  C   -0.186734
    23  H    0.146996
    24  H    0.144161
    25  H    0.160715
    26  H    0.117066
    27  H    0.137425
    28  H    0.157154
    29  H    0.151741
    30  H    0.139710
    31  H    0.153426
    32  H    0.152306
    33  H    0.154768
    34  H    0.133624
    35  H    0.114857
    36  H    0.147568
    37  H    0.140036
    38  H    0.189403
    39  H    0.213350
    40  H    0.119716
 Sum of Mulliken charges =  -0.00000

 Dipole moment (field-independent basis, Debye):
    X=              3.7960    Y=              0.4556    Z=             -2.6912  Tot=              4.6755
 Quadrupole moment (field-independent basis, Debye-Ang):
   XX=           -126.9327   YY=           -118.5681   ZZ=           -128.4704
   XY=            -10.3979   XZ=              0.0297   YZ=              1.3935

 Normal termination of Gaussian 16 at Fri Jun 13 11:35:31 2025.
