 Gaussian 16, Revision C.02,
 Gaussian 16:  ES64L-G16RevC.02  7-Dec-2021

 ----------------------------------
 # td=(50-50,nstates=3) b3lyp/6-31g
 ----------------------------------

 ----------
 [No Title]
 ----------
 Symbolic Z-matrix:
 Charge =  0 Multiplicity = 1

                         Standard orientation:
 ---------------------------------------------------------------------
 Center     Atomic      Atomic             Coordinates (Angstroms)
 Number     Number       Type             X           Y           Z
 ---------------------------------------------------------------------
      1          6           0       -4.818910   -1.150647   -0.027100
      2          6           0       -3.309878   -1.085921   -0.106024
      3          6           0       -2.516053   -2.177012    0.270685
      4          6           0       -1.114079   -2.130692    0.228868
      5          6           0       -0.316083   -3.348395    0.648136
      6          6           0       -0.469358   -0.944858   -0.200462
      7          6           0        1.025131   -0.892415   -0.301823
      8          6           0        1.792617   -0.603107    0.774691
      9          7           0        3.187709   -0.522533    0.740196
     10          6           0        3.962487   -0.403107    1.972155
     11          6           0        3.825335   -0.737428   -0.490073
     12          6           0        3.156806   -1.048496   -1.615010
     13          6           0        1.653648   -1.235044   -1.655160
     14          6           0       -1.263087    0.161858   -0.592121
     15          6           0       -0.625931    1.457485   -1.056766
     16          6           0       -0.205288    2.397218    0.136879
     17          6           0        0.514885    3.582483   -0.358427
     18          7           0        1.102720    4.499735   -0.788308
     19          6           0       -1.355428    2.791655    0.966254
     20          7           0       -2.283453    3.085891    1.617074
     21          6           0       -2.661773    0.077335   -0.541938
     22          1           0       -5.175174   -2.185838   -0.025037
     23          1           0       -5.187948   -0.673043    0.890439
     24          1           0       -5.287467   -0.632492   -0.871161
     25          1           0       -2.999506   -3.092668    0.601800
     26          1           0       -0.974640   -4.208903    0.801101
     27          1           0        0.431909   -3.624027   -0.103678
     28          1           0        0.228142   -3.174006    1.584178
     29          1           0        1.348282   -0.409549    1.746558
     30          1           0        3.398925    0.177397    2.708694
     31          1           0        4.206664   -1.379834    2.415140
     32          1           0        4.897859    0.127380    1.770118
     33          1           0        4.902447   -0.614168   -0.474310
     34          1           0        3.713096   -1.168346   -2.538824
     35          1           0        1.205596   -0.614680   -2.451573
     36          1           0        1.388996   -2.270460   -1.941343
     37          1           0        0.286106    1.268639   -1.629185
     38          1           0       -1.314756    2.013693   -1.700061
     39          1           0        0.488227    1.818251    0.762933
     40          1           0       -3.255852    0.935530   -0.845102
 ---------------------------------------------------------------------

 SCF Done:  E(RB3LYP) =  -861.320011332     A.U. after   16 cycles

 Excitation energies and oscillator strengths:

 Excited State   1:      Triplet-A      2.8152 eV  440.42 nm  f=0.0000  <S**2>=2.000
      71 -> 82        -0.13689
      74 -> 76        -0.12979
      74 -> 77         0.50403
      74 -> 78        -0.39614
      74 -> 79         0.20819
 This state for optimization and/or second-order correction.
 Total Energy, E(TD-HF/TD-DFT) =  -861.216555974
 Copying the excited state density for this state as the 1-particle RhoCI density.

 Excited State   2:      Triplet-A      3.6076 eV  343.68 nm  f=0.0000  <S**2>=2.000
      72 -> 75         0.35664
      72 -> 78        -0.16531
      72 -> 79        -0.11828
      73 -> 75        -0.22207
      73 -> 76         0.39300
      73 -> 78        -0.18633
      74 -> 75        -0.21535

 Excited State   3:      Singlet-A      3.8213 eV  324.46 nm  f=0.0034  <S**2>=0.000
      74 -> 75         0.68000
      74 -> 76        -0.18377

 Excited State   4:      Triplet-A      3.8299 eV  323.73 nm  f=0.0000  <S**2>=2.000
      72 -> 75         0.11765
      73 -> 76         0.15228
      74 -> 75         0.63902
      74 -> 76        -0.13645

 Excited State   5:      Singlet-A      4.0600 eV  305.38 nm  f=0.0101  <S**2>=0.000
      74 -> 75         0.18416
      74 -> 76         0.65970
      74 -> 77        -0.11308
      74 -> 78        -0.12549

 Excited State   6:      Singlet-A      4.2131 eV  294.28 nm  f=0.0630  <S**2>=0.000
      74 -> 77         0.60377
      74 -> 78        -0.35287

 The electronic state is 1-A.
 Alpha  occ. eigenvalues --  -14.37067 -14.36405 -14.36264 -10.28572 -10.24969
 Alpha  occ. eigenvalues --  -10.24860 -10.23110 -10.22760 -10.22184 -10.22122
 Alpha  occ. eigenvalues --  -10.20530 -10.20153 -10.19981 -10.19964 -10.19521
 Alpha  occ. eigenvalues --  -10.19310 -10.18672 -10.18507 -10.18023 -10.18008
 Alpha  occ. eigenvalues --  -10.17905  -0.96985  -0.94635  -0.93617  -0.87851
 Alpha  occ. eigenvalues --   -0.84548  -0.81994  -0.78961  -0.78011  -0.76486
 Alpha  occ. eigenvalues --   -0.72709  -0.70532  -0.69216  -0.68587  -0.64547
 Alpha  occ. eigenvalues --   -0.62727  -0.59554  -0.58189  -0.56936  -0.53650
 Alpha  occ. eigenvalues --   -0.53270  -0.50809  -0.49280  -0.48845  -0.47058
 Alpha  occ. eigenvalues --   -0.46488  -0.46340  -0.44075  -0.43971  -0.42989
 Alpha  occ. eigenvalues --   -0.42239  -0.41862  -0.41677  -0.41392  -0.41159
 Alpha  occ. eigenvalues --   -0.40972  -0.39819  -0.37662  -0.37437  -0.37370
 Alpha  occ. eigenvalues --   -0.36956  -0.36513  -0.35754  -0.35455  -0.35112
 Alpha  occ. eigenvalues --   -0.34507  -0.34300  -0.34020  -0.33163  -0.32697
 Alpha  occ. eigenvalues --   -0.26975  -0.24769  -0.23883  -0.18114
 Alpha virt. eigenvalues --   -0.01517  -0.00817  -0.00279  -0.00007   0.01292
 Alpha virt. eigenvalues --    0.02880   0.04450   0.05608   0.07129   0.08731
 Alpha virt. eigenvalues --    0.09775   0.10254   0.11002   0.11877   0.12107

 Mulliken charges:
               1
     1  C   -0.482219
     2  C    0.131814
     3  C   -0.197486
     4  C    0.107417
     5  C   -0.470819
     6  C   -0.082848
     7  C   -0.018971
     8  C    0.109183
     9  N   -0.608413
    10  C   -0.241813
    11  C    0.137765
    12  C   -0.151935
    13  C   -0.306229
    14  C    0.097110
    15  C   -0.314119
    16  C   -0.202532
    17  C    0.138718
    18  N   -0.244768
    19  C    0.151787
    20  N   -0.248664
    21  C   -0.192071
    22  H    0.144454
    23  H    0.165614
    24  H    0.149640
    25  H    0.119685
    26  H    0.140315
    27  H    0.156170
    28  H    0.152408
    29  H    0.142982
    30  H    0.154339
    31  H    0.155588
    32  H    0.158684
    33  H    0.137863
    34  H    0.117087
    35  H    0.134599
    36  H    0.141428
    37  H    0.181620
    38  H    0.166847
    39  H    0.238957
    40  H    0.130814
 Sum of Mulliken charges =  -0.00000

 Dipole moment (field-independent basis, Debye):
    X=              2.0126    Y=             -5.0772    Z=              0.4526  Tot=              5.4803
 Quadrupole moment (field-independent basis, Debye-Ang):
   XX=           -114.3132   YY=           -148.0425   ZZ=           -123.0049
   XY=              1.4708   XZ=             11.9652   YZ=             -2.8043

 Normal termination of Gaussian 16 at Fri Jun 13 11:36:07 2025.
