 Gaussian 16, Revision C.02,
 Gaussian 16:  ES64L-G16RevC.02  7-Dec-2021

 ----------------------------------
 # td=(50-50,nstates=3) b3lyp/6-31g
 ----------------------------------

 ----------
 [No Title]
 ----------
 Symbolic Z-matrix:
 Charge =  0 Multiplicity = 1

                         Standard orientation:
 ---------------------------------------------------------------------
 Center     Atomic      Atomic             Coordinates (Angstroms)
 Number     Number       Type             X           Y           Z
 ---------------------------------------------------------------------
      1          6           0        3.000682   -4.660082    0.221991
      2          6           0        2.657947   -3.187593    0.154962
      3          6           0        3.634023   -2.237018   -0.182397
      4          6           0        3.339769   -0.870701   -0.259908
      5          6           0        4.443964    0.107453   -0.604491
      6          6           0        2.018607   -0.417301    0.006017
      7          6           0        1.703171    1.043742   -0.104525
      8          6           0        1.726935    1.842633    0.984805
      9          7           0        1.490605    3.223016    0.949661
     10          6           0        1.286566    3.969475    2.186381
     11          6           0        1.193279    3.802406   -0.291172
     12          6           0        1.143392    3.096024   -1.435025
     13          6           0        1.375133    1.599904   -1.491291
     14          6           0        1.024786   -1.365869    0.347406
     15          6           0       -0.417890   -0.976589    0.628566
     16          6           0       -1.368200   -1.297279   -0.565689
     17          6           0       -2.829348   -1.071632   -0.239235
     18          6           0       -3.634682   -2.153356    0.171114
     19          6           0       -4.981065   -1.988430    0.505034
     20          6           0       -5.566748   -0.719859    0.433794
     21          6           0       -4.797256    0.375656    0.028969
     22          6           0       -3.455435    0.181336   -0.294447
     23         17           0       -2.500010    1.660027   -0.816139
     24          6           0        1.365132   -2.729087    0.420801
     25          1           0        3.917291   -4.833568    0.798636
     26          1           0        2.195579   -5.236161    0.689661
     27          1           0        3.167050   -5.078264   -0.779954
     28          1           0        4.651378   -2.567018   -0.379992
     29          1           0        5.405192   -0.407947   -0.696046
     30          1           0        4.251336    0.622240   -1.554091
     31          1           0        4.543752    0.886495    0.159251
     32          1           0        1.954862    1.444313    1.968294
     33          1           0        0.247888    3.919583    2.547510
     34          1           0        1.942002    3.574205    2.968555
     35          1           0        1.545712    5.020971    2.028959
     36          1           0        1.020007    4.872772   -0.266158
     37          1           0        0.935225    3.617307   -2.363911
     38          1           0        0.489365    1.084846   -1.903227
     39          1           0        2.188701    1.358310   -2.199138
     40          1           0       -0.776730   -1.529610    1.507083
     41          1           0       -0.489524    0.087812    0.863424
     42          1           0       -1.070856   -0.689954   -1.426795
     43          1           0       -1.228949   -2.346712   -0.851633
     44          1           0       -3.183658   -3.140268    0.220586
     45          1           0       -5.570389   -2.845294    0.814685
     46          1           0       -6.612142   -0.578696    0.687120
     47          1           0       -5.229946    1.366594   -0.036512
     48          1           0        0.596246   -3.446536    0.700483
 ---------------------------------------------------------------------

 SCF Done:  E(RB3LYP) =  -1367.49221694     A.U. after   15 cycles

 Excitation energies and oscillator strengths:

 Excited State   1:      Triplet-A      2.8441 eV  435.94 nm  f=0.0000  <S**2>=2.000
      86 -> 97        -0.14300
      90 -> 93        -0.17023
      90 -> 94         0.25855
      90 -> 95        -0.39593
      90 -> 96         0.47534
 This state for optimization and/or second-order correction.
 Total Energy, E(TD-HF/TD-DFT) =  -1367.38769829
 Copying the excited state density for this state as the 1-particle RhoCI density.

 Excited State   2:      Triplet-A      3.6265 eV  341.88 nm  f=0.0000  <S**2>=2.000
      88 -> 91        -0.11874
      88 -> 94         0.34112
      88 -> 96        -0.12558
      89 -> 93         0.40774
      89 -> 95        -0.12017
      90 -> 91        -0.34772
      90 -> 92         0.10174
      90 -> 93         0.14236

 Excited State   3:      Triplet-A      3.6510 eV  339.59 nm  f=0.0000  <S**2>=2.000
      88 -> 94         0.21035
      89 -> 93         0.24748
      90 -> 91         0.55389
      90 -> 92        -0.18143

 Excited State   4:      Singlet-A      3.6515 eV  339.54 nm  f=0.0002  <S**2>=0.000
      90 -> 91         0.67477
      90 -> 92        -0.17347

 Excited State   5:      Singlet-A      3.7421 eV  331.32 nm  f=0.0008  <S**2>=0.000
      90 -> 91         0.18032
      90 -> 92         0.68295

 Excited State   6:      Singlet-A      3.9743 eV  311.96 nm  f=0.0118  <S**2>=0.000
      90 -> 93         0.68512
      90 -> 94        -0.13667

 The electronic state is 1-A.
 Alpha  occ. eigenvalues -- -101.51882 -14.35125 -10.25104 -10.21568 -10.20862
 Alpha  occ. eigenvalues --  -10.20475 -10.20451 -10.20029 -10.19702 -10.19571
 Alpha  occ. eigenvalues --  -10.19478 -10.18451 -10.18425 -10.18373 -10.18308
 Alpha  occ. eigenvalues --  -10.17964 -10.17448 -10.17413 -10.17211 -10.17119
 Alpha  occ. eigenvalues --  -10.16884 -10.16793 -10.16462 -10.16128  -9.45100
 Alpha  occ. eigenvalues --   -7.21465  -7.20379  -7.20356  -0.95069  -0.88656
 Alpha  occ. eigenvalues --   -0.85605  -0.82817  -0.80181  -0.79800  -0.77254
 Alpha  occ. eigenvalues --   -0.76569  -0.74821  -0.73860  -0.71333  -0.70898
 Alpha  occ. eigenvalues --   -0.68189  -0.67398  -0.64277  -0.62673  -0.61335
 Alpha  occ. eigenvalues --   -0.60791  -0.58614  -0.56087  -0.55591  -0.51460
 Alpha  occ. eigenvalues --   -0.51325  -0.49046  -0.48576  -0.47408  -0.47119
 Alpha  occ. eigenvalues --   -0.46019  -0.45263  -0.44796  -0.43692  -0.42594
 Alpha  occ. eigenvalues --   -0.42176  -0.41757  -0.41584  -0.41299  -0.40915
 Alpha  occ. eigenvalues --   -0.40447  -0.40112  -0.39923  -0.39637  -0.38819
 Alpha  occ. eigenvalues --   -0.38514  -0.37223  -0.36875  -0.35805  -0.35664
 Alpha  occ. eigenvalues --   -0.35424  -0.34455  -0.33872  -0.32873  -0.32285
 Alpha  occ. eigenvalues --   -0.32092  -0.31844  -0.30897  -0.30198  -0.25525
 Alpha  occ. eigenvalues --   -0.24950  -0.24517  -0.22557  -0.22170  -0.16134
 Alpha virt. eigenvalues --   -0.00976  -0.00747   0.01107   0.01294   0.01882
 Alpha virt. eigenvalues --    0.02567   0.07449   0.08951   0.09693   0.11018
 Alpha virt. eigenvalues --    0.11089   0.12401   0.12655   0.12850   0.13443

 Mulliken charges:
               1
     1  C   -0.482462
     2  C    0.137444
     3  C   -0.203755
     4  C    0.106558
     5  C   -0.472819
     6  C   -0.090543
     7  C   -0.007857
     8  C    0.124094
     9  N   -0.604086
    10  C   -0.240783
    11  C    0.137564
    12  C   -0.146959
    13  C   -0.314117
    14  C    0.109115
    15  C   -0.313251
    16  C   -0.327060
    17  C    0.143249
    18  C   -0.155356
    19  C   -0.116340
    20  C   -0.121879
    21  C   -0.098978
    22  C   -0.285912
    23  Cl   0.074751
    24  C   -0.209923
    25  H    0.147378
    26  H    0.139855
    27  H    0.152675
    28  H    0.111699
    29  H    0.133402
    30  H    0.153518
    31  H    0.155125
    32  H    0.136672
    33  H    0.152129
    34  H    0.151254
    35  H    0.150493
    36  H    0.129302
    37  H    0.108779
    38  H    0.148947
    39  H    0.130889
    40  H    0.132617
    41  H    0.161076
    42  H    0.165567
    43  H    0.138979
    44  H    0.130843
    45  H    0.131808
    46  H    0.134164
    47  H    0.153930
    48  H    0.108205
 Sum of Mulliken charges =  -0.00000

 Dipole moment (field-independent basis, Debye):
    X=             -0.6995    Y=             -0.4168    Z=              1.7925  Tot=              1.9687
 Quadrupole moment (field-independent basis, Debye-Ang):
   XX=           -138.4889   YY=           -134.6922   ZZ=           -148.6347
   XY=              4.1298   XZ=             -2.4912   YZ=              4.5057

 Normal termination of Gaussian 16 at Fri Jun 13 11:37:52 2025.
