 Gaussian 16, Revision C.02,
 Gaussian 16:  ES64L-G16RevC.02  7-Dec-2021

 ----------------------------------
 # td=(50-50,nstates=3) b3lyp/6-31g
 ----------------------------------

 ----------
 [No Title]
 ----------
 Symbolic Z-matrix:
 Charge =  0 Multiplicity = 1

                         Standard orientation:
 ---------------------------------------------------------------------
 Center     Atomic      Atomic             Coordinates (Angstroms)
 Number     Number       Type             X           Y           Z
 ---------------------------------------------------------------------
      1          6           0       -0.376212    4.764181   -0.305401
      2          6           0        0.311950    3.421245   -0.191623
      3          6           0        1.578279    3.311787    0.404626
      4          6           0        2.243075    2.084590    0.515724
      5          6           0        3.612161    2.033663    1.162410
      6          6           0        1.629329    0.905627    0.013607
      7          6           0        2.320680   -0.415778    0.158078
      8          6           0        3.213929   -0.835058   -0.765904
      9          7           0        3.890124   -2.057965   -0.699932
     10          6           0        4.984743   -2.354869   -1.617321
     11          6           0        3.633803   -2.887968    0.402257
     12          6           0        2.766425   -2.561164    1.376506
     13          6           0        1.989809   -1.259810    1.390958
     14          6           0        0.351026    1.008784   -0.579952
     15          6           0       -0.359175   -0.225217   -1.138524
     16          6           0       -1.600288   -0.579299   -0.383290
     17          7           0       -1.640351   -1.570519    0.498014
     18          8           0       -3.029961   -1.512416    0.993430
     19          6           0       -3.623790   -0.474431    0.312166
     20          6           0       -5.037142   -0.164072    0.581571
     21         17           0       -6.189724   -1.296411   -0.416170
     22          7           0       -2.808401    0.119351   -0.528883
     23          6           0       -0.286977    2.256081   -0.679844
     24          1           0       -0.466846    5.252365    0.673033
     25          1           0        0.185060    5.448434   -0.955070
     26          1           0       -1.382658    4.661121   -0.722893
     27          1           0        2.060967    4.205943    0.792449
     28          1           0        3.873577    3.005384    1.593106
     29          1           0        3.655932    1.285713    1.962281
     30          1           0        4.391790    1.765131    0.439694
     31          1           0        3.447677   -0.230489   -1.636513
     32          1           0        4.779910   -1.906147   -2.594033
     33          1           0        5.955156   -1.976974   -1.260439
     34          1           0        5.067792   -3.437332   -1.755288
     35          1           0        4.177367   -3.826377    0.403428
     36          1           0        2.595050   -3.266653    2.183048
     37          1           0        0.904900   -1.458421    1.433546
     38          1           0        2.201945   -0.684113    2.311260
     39          1           0       -0.650210   -0.042189   -2.179763
     40          1           0        0.319204   -1.080262   -1.126881
     41          1           0       -5.304821   -0.337257    1.620985
     42          1           0       -5.274961    0.846252    0.261228
     43          1           0       -1.271202    2.308369   -1.136376
 ---------------------------------------------------------------------

 SCF Done:  E(RB3LYP) =  -1397.28454568     A.U. after   16 cycles

 Excitation energies and oscillator strengths:

 Excited State   1:      Triplet-A      1.9700 eV  629.37 nm  f=0.0000  <S**2>=2.000
      87 -> 88         0.70610
 This state for optimization and/or second-order correction.
 Total Energy, E(TD-HF/TD-DFT) =  -1397.21215099
 Copying the excited state density for this state as the 1-particle RhoCI density.

 Excited State   2:      Singlet-A      1.9809 eV  625.89 nm  f=0.0051  <S**2>=0.000
      87 -> 88         0.70637

 Excited State   3:      Triplet-A      2.8281 eV  438.40 nm  f=0.0000  <S**2>=2.000
      84 -> 95        -0.14317
      87 -> 89         0.17367
      87 -> 90         0.13360
      87 -> 91        -0.19396
      87 -> 92         0.62647

 Excited State   4:      Triplet-A      3.5425 eV  349.99 nm  f=0.0000  <S**2>=2.000
      85 -> 89        -0.17973
      85 -> 91         0.18508
      86 -> 88         0.53606
      86 -> 89         0.13048
      86 -> 90         0.26827
      87 -> 89         0.13692

 Excited State   5:      Singlet-A      3.6107 eV  343.38 nm  f=0.0019  <S**2>=0.000
      86 -> 88         0.70567

 Excited State   6:      Singlet-A      3.6216 eV  342.35 nm  f=0.0065  <S**2>=0.000
      87 -> 89         0.68926
      87 -> 90         0.10843

 The electronic state is 1-A.
 Alpha  occ. eigenvalues -- -101.53076 -19.25547 -14.41419 -14.37140 -14.35730
 Alpha  occ. eigenvalues --  -10.32133 -10.28398 -10.28016 -10.22140 -10.21252
 Alpha  occ. eigenvalues --  -10.20884 -10.20417 -10.19717 -10.19212 -10.19133
 Alpha  occ. eigenvalues --  -10.18897 -10.17769 -10.17742 -10.17617 -10.17571
 Alpha  occ. eigenvalues --  -10.17526 -10.17145 -10.16588  -9.46315  -7.22754
 Alpha  occ. eigenvalues --   -7.21559  -7.21528  -1.17238  -0.96762  -0.95658
 Alpha  occ. eigenvalues --   -0.91372  -0.86506  -0.85591  -0.80779  -0.79109
 Alpha  occ. eigenvalues --   -0.77857  -0.75529  -0.74516  -0.72318  -0.71426
 Alpha  occ. eigenvalues --   -0.68645  -0.68062  -0.63248  -0.62588  -0.61990
 Alpha  occ. eigenvalues --   -0.61359  -0.57497  -0.56482  -0.52055  -0.51779
 Alpha  occ. eigenvalues --   -0.50324  -0.49594  -0.48485  -0.48392  -0.47773
 Alpha  occ. eigenvalues --   -0.46170  -0.45694  -0.45394  -0.44097  -0.42693
 Alpha  occ. eigenvalues --   -0.42394  -0.42065  -0.41688  -0.41381  -0.40939
 Alpha  occ. eigenvalues --   -0.40711  -0.40562  -0.40210  -0.40055  -0.39151
 Alpha  occ. eigenvalues --   -0.36733  -0.36080  -0.35464  -0.35077  -0.34503
 Alpha  occ. eigenvalues --   -0.33722  -0.33136  -0.32946  -0.31807  -0.31593
 Alpha  occ. eigenvalues --   -0.31131  -0.30405  -0.29995  -0.25587  -0.23678
 Alpha  occ. eigenvalues --   -0.22980  -0.16698
 Alpha virt. eigenvalues --   -0.07830  -0.01150   0.00603   0.00680   0.01664
 Alpha virt. eigenvalues --    0.02745   0.04586   0.07187   0.08712   0.10711
 Alpha virt. eigenvalues --    0.11025   0.11305   0.11418   0.12304   0.12571

 Mulliken charges:
               1
     1  C   -0.483015
     2  C    0.130833
     3  C   -0.197322
     4  C    0.102957
     5  C   -0.469604
     6  C   -0.077556
     7  C   -0.021558
     8  C    0.120851
     9  N   -0.605770
    10  C   -0.240539
    11  C    0.133078
    12  C   -0.147024
    13  C   -0.320650
    14  C    0.090177
    15  C   -0.358711
    16  C    0.266964
    17  N   -0.106444
    18  O   -0.391841
    19  C    0.495102
    20  C   -0.466560
    21  Cl  -0.012333
    22  N   -0.353976
    23  C   -0.200095
    24  H    0.149996
    25  H    0.152388
    26  H    0.144293
    27  H    0.114916
    28  H    0.135195
    29  H    0.156984
    30  H    0.151234
    31  H    0.137494
    32  H    0.152773
    33  H    0.149618
    34  H    0.153784
    35  H    0.131078
    36  H    0.113226
    37  H    0.165437
    38  H    0.131735
    39  H    0.177779
    40  H    0.183988
    41  H    0.232949
    42  H    0.234806
    43  H    0.143362
 Sum of Mulliken charges =  -0.00000

 Dipole moment (field-independent basis, Debye):
    X=              2.7827    Y=              2.0923    Z=             -0.4917  Tot=              3.5161
 Quadrupole moment (field-independent basis, Debye-Ang):
   XX=           -133.5910   YY=           -139.4072   ZZ=           -139.7530
   XY=            -15.7874   XZ=            -11.8171   YZ=              5.0136

 Normal termination of Gaussian 16 at Fri Jun 13 11:38:03 2025.
