 Gaussian 16, Revision C.02,
 Gaussian 16:  ES64L-G16RevC.02  7-Dec-2021

 ----------------------------------
 # td=(50-50,nstates=3) b3lyp/6-31g
 ----------------------------------

 ----------
 [No Title]
 ----------
 Symbolic Z-matrix:
 Charge =  0 Multiplicity = 1

                         Standard orientation:
 ---------------------------------------------------------------------
 Center     Atomic      Atomic             Coordinates (Angstroms)
 Number     Number       Type             X           Y           Z
 ---------------------------------------------------------------------
      1          6           0       -4.554066    0.029644   -0.049818
      2          8           0       -4.110781   -0.967258   -1.008369
      3          6           0       -2.913673   -1.640394   -0.771525
      4          6           0       -2.534394   -2.559841   -1.762219
      5          6           0       -1.350057   -3.275776   -1.606866
      6          6           0       -0.544906   -3.087843   -0.473544
      7          6           0       -0.919033   -2.173687    0.520556
      8          6           0       -0.055055   -1.983591    1.764806
      9          6           0       -0.856586   -2.238526    3.062477
     10          6           0        0.624382   -0.579157    1.824394
     11          6           0        1.716413   -0.343192    0.788917
     12          6           0        2.828442   -1.205109    0.800465
     13          6           0        3.885469   -1.072345   -0.103355
     14          6           0        5.060463   -2.025800   -0.085013
     15          6           0        3.822496   -0.026054   -1.035370
     16          6           0        2.742752    0.863093   -1.075864
     17          6           0        2.757806    1.985108   -2.093913
     18          6           0        1.669145    0.714703   -0.153792
     19          6           0        0.518719    1.672868   -0.206693
     20          6           0        0.384970    2.644842    0.723197
     21          7           0       -0.686486    3.549034    0.765845
     22          6           0       -0.630921    4.720999    1.632471
     23          6           0       -1.685591    3.424417   -0.208200
     24          6           0       -1.647283    2.490436   -1.177474
     25          6           0       -0.500631    1.511267   -1.336412
     26          6           0       -2.115158   -1.446001    0.360816
     27          1           0       -5.495347    0.407233   -0.448884
     28          1           0       -4.726686   -0.415786    0.937566
     29          1           0       -3.829810    0.848572    0.033880
     30          1           0       -3.175046   -2.688158   -2.626649
     31          1           0       -1.049069   -3.985990   -2.370776
     32          1           0        0.377509   -3.649234   -0.364220
     33          1           0       -0.195658   -2.200219    3.936835
     34          1           0       -1.639672   -1.484076    3.204834
     35          1           0       -1.338975   -3.221546    3.038055
     36          1           0        1.064184   -0.473473    2.827905
     37          1           0        2.872079   -1.997777    1.543868
     38          1           0        5.090620   -2.604573    0.844039
     39          1           0        5.007913   -2.741325   -0.916947
     40          1           0        6.013227   -1.491491   -0.180499
     41          1           0        4.642049    0.111203   -1.737282
     42          1           0        3.777657    2.182174   -2.439900
     43          1           0        2.156318    1.738499   -2.979102
     44          1           0        2.350151    2.910909   -1.675803
     45          1           0        1.112488    2.764873    1.519459
     46          1           0       -0.131842    4.463016    2.571749
     47          1           0       -0.090905    5.564727    1.175933
     48          1           0       -1.646644    5.052245    1.869779
     49          1           0       -2.504525    4.130124   -0.116649
     50          1           0       -2.468773    2.434305   -1.884883
     51          1           0       -0.873393    0.475287   -1.346740
     52          1           0       -0.014018    1.643223   -2.319037
     53          1           0       -2.408883   -0.731393    1.120111
     54          1           0        0.741544   -2.737920    1.719647
     55          1           0       -0.147057    0.191023    1.741523
 ---------------------------------------------------------------------

 SCF Done:  E(RB3LYP) =  -1061.70252348     A.U. after   15 cycles

 Excitation energies and oscillator strengths:

 Excited State   1:      Triplet-A      2.8108 eV  441.11 nm  f=0.0000  <S**2>=2.000
      89 ->100         0.13794
      94 -> 95         0.54051
      94 -> 98        -0.17581
      94 -> 99         0.39073
 This state for optimization and/or second-order correction.
 Total Energy, E(TD-HF/TD-DFT) =  -1061.59922982
 Copying the excited state density for this state as the 1-particle RhoCI density.

 Excited State   2:      Triplet-A      3.6037 eV  344.05 nm  f=0.0000  <S**2>=2.000
      90 -> 97         0.10557
      91 -> 95         0.16803
      91 -> 97        -0.39416
      92 -> 95         0.36688
      92 -> 97         0.19049
      92 -> 98         0.18561
      92 -> 99        -0.14618
      94 -> 98        -0.10048
      94 -> 99         0.12769

 Excited State   3:      Triplet-A      3.7261 eV  332.74 nm  f=0.0000  <S**2>=2.000
      90 -> 96         0.42308
      91 -> 96         0.11861
      93 -> 95         0.10262
      93 -> 96         0.19973
      93 -> 98        -0.39922
      93 -> 99        -0.27010

 Excited State   4:      Singlet-A      3.9473 eV  314.10 nm  f=0.0641  <S**2>=0.000
      94 -> 95         0.70162

 Excited State   5:      Singlet-A      4.1435 eV  299.22 nm  f=0.0032  <S**2>=0.000
      94 -> 96         0.45241
      94 -> 97         0.53702

 Excited State   6:      Singlet-A      4.1949 eV  295.56 nm  f=0.0005  <S**2>=0.000
      94 -> 96         0.53994
      94 -> 97        -0.45334

 The electronic state is 1-A.
 Alpha  occ. eigenvalues --  -19.16124 -14.35619 -10.23744 -10.22822 -10.22077
 Alpha  occ. eigenvalues --  -10.21055 -10.20768 -10.18633 -10.18518 -10.18314
 Alpha  occ. eigenvalues --  -10.18299 -10.18224 -10.17933 -10.17797 -10.17425
 Alpha  occ. eigenvalues --  -10.17416 -10.17302 -10.17157 -10.17153 -10.17101
 Alpha  occ. eigenvalues --  -10.16842 -10.16697 -10.16673 -10.16653 -10.16633
 Alpha  occ. eigenvalues --  -10.16443  -1.04532  -0.95527  -0.85654  -0.84774
 Alpha  occ. eigenvalues --   -0.80307  -0.80038  -0.77422  -0.76177  -0.74852
 Alpha  occ. eigenvalues --   -0.74123  -0.72612  -0.71255  -0.68900  -0.68765
 Alpha  occ. eigenvalues --   -0.67578  -0.66736  -0.62969  -0.62161  -0.61067
 Alpha  occ. eigenvalues --   -0.58610  -0.57281  -0.55734  -0.55084  -0.51794
 Alpha  occ. eigenvalues --   -0.51601  -0.49192  -0.47868  -0.47662  -0.47250
 Alpha  occ. eigenvalues --   -0.46620  -0.45634  -0.45462  -0.45248  -0.43867
 Alpha  occ. eigenvalues --   -0.43712  -0.42627  -0.42405  -0.41742  -0.41303
 Alpha  occ. eigenvalues --   -0.41003  -0.40784  -0.40525  -0.40429  -0.40066
 Alpha  occ. eigenvalues --   -0.39602  -0.38702  -0.38493  -0.37772  -0.37047
 Alpha  occ. eigenvalues --   -0.36546  -0.35726  -0.35343  -0.34954  -0.34611
 Alpha  occ. eigenvalues --   -0.33971  -0.33485  -0.32303  -0.32009  -0.31669
 Alpha  occ. eigenvalues --   -0.30817  -0.30459  -0.29972  -0.25483  -0.23692
 Alpha  occ. eigenvalues --   -0.22332  -0.22054  -0.20847  -0.16519
 Alpha virt. eigenvalues --    0.00560   0.00893   0.01233   0.02441   0.02537
 Alpha virt. eigenvalues --    0.07256   0.08465   0.09183   0.10269   0.10557
 Alpha virt. eigenvalues --    0.11694   0.11804   0.11864   0.12557   0.13160

 Mulliken charges:
               1
     1  C   -0.178508
     2  O   -0.567343
     3  C    0.277232
     4  C   -0.123228
     5  C   -0.131492
     6  C   -0.161429
     7  C    0.125778
     8  C   -0.178927
     9  C   -0.401767
    10  C   -0.310786
    11  C    0.122148
    12  C   -0.216994
    13  C    0.136137
    14  C   -0.482302
    15  C   -0.202700
    16  C    0.103854
    17  C   -0.476179
    18  C   -0.080799
    19  C   -0.013467
    20  C    0.118539
    21  N   -0.605387
    22  C   -0.239733
    23  C    0.127569
    24  C   -0.153933
    25  C   -0.320794
    26  C   -0.171067
    27  H    0.161476
    28  H    0.142319
    29  H    0.159406
    30  H    0.133936
    31  H    0.121388
    32  H    0.119605
    33  H    0.128182
    34  H    0.130246
    35  H    0.139811
    36  H    0.129882
    37  H    0.111530
    38  H    0.140034
    39  H    0.153148
    40  H    0.145740
    41  H    0.110544
    42  H    0.135522
    43  H    0.154203
    44  H    0.151729
    45  H    0.137375
    46  H    0.152722
    47  H    0.150352
    48  H    0.149953
    49  H    0.128844
    50  H    0.114877
    51  H    0.164739
    52  H    0.135064
    53  H    0.130926
    54  H    0.128451
    55  H    0.143576
 Sum of Mulliken charges =  -0.00000

 Dipole moment (field-independent basis, Debye):
    X=              0.2246    Y=              2.4157    Z=              2.1256  Tot=              3.2255
 Quadrupole moment (field-independent basis, Debye-Ang):
   XX=           -151.9608   YY=           -144.5876   ZZ=           -151.6983
   XY=            -11.1758   XZ=             -5.6775   YZ=              4.4954

 1\1\GINC-N2\SP\RB3LYP TD-FC\6-31G\C24H29N1O1\HPCMGAC13\13-Jun-2025\0\\
 # td=(50-50,nstates=3) b3lyp/6-31g\\[No Title]\\0,1\C,0,-4.554066,-0.0
 29644,0.049818\O,0,-4.110781,0.967258,1.008369\C,0,-2.913673,1.640394,
 0.771525\C,0,-2.534394,2.559841,1.762219\C,0,-1.350057,3.275776,1.6068
 66\C,0,-0.544906,3.087843,0.473544\C,0,-0.919033,2.173687,-0.520556\C,
 0,-0.055055,1.983591,-1.764806\C,0,-0.856586,2.238526,-3.062477\C,0,0.
 624382,0.579157,-1.824394\C,0,1.716413,0.343192,-0.788917\C,0,2.828442
 ,1.205109,-0.800465\C,0,3.885469,1.072345,0.103355\C,0,5.060463,2.0258

 Normal termination of Gaussian 16 at Fri Jun 13 11:40:56 2025.
