 Gaussian 16, Revision C.02,
 Gaussian 16:  ES64L-G16RevC.02  7-Dec-2021

 ----------------------------------
 # td=(50-50,nstates=3) b3lyp/6-31g
 ----------------------------------

 ----------
 [No Title]
 ----------
 Symbolic Z-matrix:
 Charge =  0 Multiplicity = 1

                         Standard orientation:
 ---------------------------------------------------------------------
 Center     Atomic      Atomic             Coordinates (Angstroms)
 Number     Number       Type             X           Y           Z
 ---------------------------------------------------------------------
      1          6           0        1.927745    4.232611   -1.196306
      2          6           0        0.848846    3.224724   -0.867515
      3          6           0       -0.407991    3.284184   -1.487379
      4          6           0       -1.422880    2.359936   -1.208842
      5          6           0       -2.764413    2.510853   -1.895003
      6          6           0       -1.184578    1.319347   -0.271642
      7          6           0       -2.254220    0.323145    0.048559
      8          6           0       -2.872831    0.346379    1.253619
      9          7           0       -3.848089   -0.570183    1.652039
     10          6           0       -4.631304   -0.346462    2.864992
     11          6           0       -4.211158   -1.575571    0.743329
     12          6           0       -3.659285   -1.688029   -0.477896
     13          6           0       -2.612783   -0.726896   -1.006286
     14          6           0        0.085882    1.253291    0.350017
     15          6           0        0.372481    0.158296    1.372508
     16          7           0        1.794895   -0.231695    1.416170
     17          7           0        2.674269    0.360275    2.229800
     18          6           0        3.968124   -0.086856    1.791655
     19          8           0        5.057936    0.230084    2.289287
     20          7           0        3.769852   -0.968965    0.678432
     21          7           0        2.441030   -1.005358    0.492778
     22          6           0        1.811111   -1.789542   -0.525811
     23          6           0        0.899078   -2.792956   -0.178086
     24          6           0        0.322174   -3.564752   -1.191552
     25          6           0        0.672050   -3.345030   -2.529519
     26          6           0        1.604777   -2.352658   -2.858497
     27          6           0        2.180397   -1.567877   -1.856823
     28          6           0        1.076397    2.202412    0.060307
     29          1           0        2.417817    3.994784   -2.150180
     30          1           0        1.515933    5.244037   -1.288566
     31          1           0        2.704123    4.251532   -0.425508
     32          1           0       -0.611063    4.084522   -2.195047
     33          1           0       -2.918068    3.543790   -2.222815
     34          1           0       -2.839882    1.873544   -2.786255
     35          1           0       -3.587889    2.235872   -1.228527
     36          1           0       -2.630183    1.103276    1.992887
     37          1           0       -4.010321    0.146205    3.618676
     38          1           0       -5.519382    0.277337    2.686239
     39          1           0       -4.960317   -1.306497    3.273859
     40          1           0       -4.964034   -2.267571    1.103919
     41          1           0       -3.972718   -2.504961   -1.120019
     42          1           0       -1.703843   -1.273119   -1.311708
     43          1           0       -2.966319   -0.241903   -1.932625
     44          1           0        0.168658    0.484354    2.395260
     45          1           0       -0.231229   -0.726158    1.175325
     46          1           0        0.667160   -2.983155    0.863806
     47          1           0       -0.385276   -4.344720   -0.932686
     48          1           0        0.227950   -3.951594   -3.311524
     49          1           0        1.884701   -2.189357   -3.893268
     50          1           0        2.910048   -0.801388   -2.086701
     51          1           0        2.031237    2.150680    0.573645
 ---------------------------------------------------------------------

 SCF Done:  E(RB3LYP) =  -1200.70262931     A.U. after   18 cycles

 Excitation energies and oscillator strengths:

 Excited State   1:      Triplet-A      1.0804 eV 1147.58 nm  f=0.0000  <S**2>=2.000
      98 ->100         0.72486
      98 ->101        -0.16006
      98 <-100         0.24841
 This state for optimization and/or second-order correction.
 Total Energy, E(TD-HF/TD-DFT) =  -1200.66292554
 Copying the excited state density for this state as the 1-particle RhoCI density.

 Excited State   2:      Triplet-A      2.4920 eV  497.53 nm  f=0.0000  <S**2>=2.000
      99 ->100         0.70203

 Excited State   3:      Singlet-A      2.5001 eV  495.91 nm  f=0.0029  <S**2>=0.000
      99 ->100         0.70617

 Excited State   4:      Triplet-A      2.7770 eV  446.47 nm  f=0.0000  <S**2>=2.000
      94 ->106         0.12746
      99 ->102        -0.15176
      99 ->103         0.53572
      99 ->104         0.11301
      99 ->105         0.38783

 Excited State   5:      Singlet-A      2.9678 eV  417.77 nm  f=0.0063  <S**2>=0.000
      97 ->100         0.68258
      98 ->100         0.13510

 Excited State   6:      Singlet-A      3.0052 eV  412.57 nm  f=0.0517  <S**2>=0.000
      97 ->100        -0.13279
      98 ->100         0.68625

 The electronic state is 1-A.
 Alpha  occ. eigenvalues --  -19.07399 -14.48640 -14.48365 -14.37507 -14.37404
 Alpha  occ. eigenvalues --  -14.37218 -10.28153 -10.27210 -10.26099 -10.23447
 Alpha  occ. eigenvalues --  -10.23054 -10.22794 -10.22653 -10.22316 -10.22158
 Alpha  occ. eigenvalues --  -10.22018 -10.21926 -10.21203 -10.20412 -10.20370
 Alpha  occ. eigenvalues --  -10.20113 -10.19618 -10.19571 -10.18682 -10.18628
 Alpha  occ. eigenvalues --  -10.18437 -10.18182 -10.17940  -1.17091  -1.00036
 Alpha  occ. eigenvalues --   -0.99161  -0.97411  -0.91132  -0.88274  -0.87129
 Alpha  occ. eigenvalues --   -0.82296  -0.81247  -0.79234  -0.78861  -0.78434
 Alpha  occ. eigenvalues --   -0.77064  -0.74378  -0.72966  -0.69743  -0.69471
 Alpha  occ. eigenvalues --   -0.69042  -0.65459  -0.64864  -0.63976  -0.63028
 Alpha  occ. eigenvalues --   -0.61747  -0.59455  -0.58069  -0.56422  -0.54067
 Alpha  occ. eigenvalues --   -0.53440  -0.52671  -0.51094  -0.50566  -0.49581
 Alpha  occ. eigenvalues --   -0.49074  -0.48209  -0.47260  -0.46966  -0.46842
 Alpha  occ. eigenvalues --   -0.45984  -0.45365  -0.44735  -0.44307  -0.43201
 Alpha  occ. eigenvalues --   -0.42815  -0.42218  -0.41887  -0.41626  -0.41486
 Alpha  occ. eigenvalues --   -0.40379  -0.39845  -0.39618  -0.38459  -0.38255
 Alpha  occ. eigenvalues --   -0.37666  -0.37335  -0.36629  -0.35905  -0.35427
 Alpha  occ. eigenvalues --   -0.34872  -0.34355  -0.33776  -0.33582  -0.32754
 Alpha  occ. eigenvalues --   -0.29840  -0.28502  -0.28191  -0.27553  -0.24992
 Alpha  occ. eigenvalues --   -0.24101  -0.22336  -0.19550  -0.18471
 Alpha virt. eigenvalues --   -0.07454  -0.03376  -0.03313  -0.01649  -0.00884
 Alpha virt. eigenvalues --    0.00754   0.05385   0.06410   0.07100   0.08093
 Alpha virt. eigenvalues --    0.09438   0.09863   0.10093   0.10459   0.10697

 Mulliken charges:
               1
     1  C   -0.483869
     2  C    0.123737
     3  C   -0.193550
     4  C    0.096866
     5  C   -0.477675
     6  C   -0.059398
     7  C   -0.029298
     8  C    0.117925
     9  N   -0.605858
    10  C   -0.243196
    11  C    0.132989
    12  C   -0.152542
    13  C   -0.316702
    14  C    0.075161
    15  C   -0.141076
    16  N   -0.188334
    17  N   -0.206713
    18  C    0.465287
    19  O   -0.463058
    20  N   -0.194278
    21  N   -0.338898
    22  C    0.295506
    23  C   -0.082845
    24  C   -0.148292
    25  C   -0.099300
    26  C   -0.149765
    27  C   -0.061238
    28  C   -0.190863
    29  H    0.157107
    30  H    0.149089
    31  H    0.159976
    32  H    0.119691
    33  H    0.143760
    34  H    0.155386
    35  H    0.155830
    36  H    0.145407
    37  H    0.157387
    38  H    0.156927
    39  H    0.156773
    40  H    0.136634
    41  H    0.112543
    42  H    0.142275
    43  H    0.141286
    44  H    0.207146
    45  H    0.187496
    46  H    0.161717
    47  H    0.147514
    48  H    0.143413
    49  H    0.148473
    50  H    0.176168
    51  H    0.157281
 Sum of Mulliken charges =  -0.00000

 Dipole moment (field-independent basis, Debye):
    X=            -11.1881    Y=             -2.0229    Z=             -4.3453  Tot=             12.1716
 Quadrupole moment (field-independent basis, Debye-Ang):
   XX=           -202.8709   YY=           -149.4874   ZZ=           -158.6438
   XY=              4.2423   XZ=            -34.4777   YZ=             -2.1111

 1\1\GINC-N2\SP\RB3LYP TD-FC\6-31G\C22H23N5O1\HPCMGAC13\13-Jun-2025\0\\
 # td=(50-50,nstates=3) b3lyp/6-31g\\[No Title]\\0,1\C,0,-1.927745,4.23
 2611,1.196306\C,0,-0.848846,3.224724,0.867515\C,0,0.407991,3.284184,1.
 487379\C,0,1.42288,2.359936,1.208842\C,0,2.764413,2.510853,1.895003\C,
 0,1.184578,1.319347,0.271642\C,0,2.25422,0.323145,-0.048559\C,0,2.8728
 31,0.346379,-1.253619\N,0,3.848089,-0.570183,-1.652039\C,0,4.631304,-0
 .346462,-2.864992\C,0,4.211158,-1.575571,-0.743329\C,0,3.659285,-1.688
 029,0.477896\C,0,2.612783,-0.726896,1.006286\C,0,-0.085882,1.253291,-0

 Normal termination of Gaussian 16 at Fri Jun 13 11:41:44 2025.
