 Gaussian 16, Revision C.02,
 Gaussian 16:  ES64L-G16RevC.02  7-Dec-2021

 ----------------------------------
 # td=(50-50,nstates=3) b3lyp/6-31g
 ----------------------------------

 ----------
 [No Title]
 ----------
 Symbolic Z-matrix:
 Charge =  0 Multiplicity = 1

                         Standard orientation:
 ---------------------------------------------------------------------
 Center     Atomic      Atomic             Coordinates (Angstroms)
 Number     Number       Type             X           Y           Z
 ---------------------------------------------------------------------
      1          6           0       -4.516927    1.097772   -3.002503
      2          6           0       -3.379420    1.339938   -2.034856
      3          6           0       -2.497131    2.415428   -2.211724
      4          6           0       -1.466119    2.689853   -1.301885
      5          6           0       -0.563809    3.883143   -1.545550
      6          6           0       -1.285836    1.849441   -0.171778
      7          6           0       -0.220949    2.159031    0.836321
      8          6           0        1.078166    1.871452    0.591564
      9          7           0        2.119491    2.122040    1.488481
     10          6           0        3.514083    1.948823    1.087362
     11          6           0        1.792542    2.706322    2.720122
     12          6           0        0.534359    3.041660    3.059208
     13          6           0       -0.649194    2.854282    2.130764
     14          6           0       -2.167045    0.754139    0.006218
     15          6           0       -2.021230   -0.171623    1.217979
     16          6           0       -2.251311   -1.627020    0.964406
     17          6           0       -3.436505   -2.366614    1.259709
     18          8           0       -4.550620   -2.071672    1.694323
     19          8           0       -3.074258   -3.746943    0.917504
     20          7           0       -1.742443   -3.806130    0.425967
     21          7           0       -1.340769   -2.513788    0.489427
     22          6           0        0.003594   -2.216410    0.063551
     23          6           0        0.203959   -1.487177   -1.111629
     24          6           0        1.507870   -1.162896   -1.493648
     25          6           0        2.568961   -1.571619   -0.688498
     26         35           0        4.366274   -1.018952   -1.166541
     27          6           0        2.377454   -2.329571    0.464111
     28          6           0        1.074170   -2.662193    0.843266
     29          6           0       -3.195822    0.516301   -0.917046
     30          1           0       -4.245765    1.391362   -4.022542
     31          1           0       -4.812182    0.043513   -3.018608
     32          1           0       -5.405754    1.679235   -2.722172
     33          1           0       -2.622384    3.066466   -3.073555
     34          1           0       -0.978092    4.526319   -2.328335
     35          1           0       -0.436475    4.485579   -0.639795
     36          1           0        0.441568    3.579917   -1.863163
     37          1           0        1.382170    1.398215   -0.334660
     38          1           0        3.616057    1.108988    0.395584
     39          1           0        3.926932    2.846290    0.602359
     40          1           0        4.122445    1.727160    1.969826
     41          1           0        2.629976    2.853810    3.393118
     42          1           0        0.352027    3.463172    4.042447
     43          1           0       -1.445788    2.275148    2.630926
     44          1           0       -1.126495    3.824211    1.896569
     45          1           0       -1.027392   -0.023922    1.655078
     46          1           0       -2.752625    0.119708    1.984187
     47          1           0       -0.643606   -1.164826   -1.703504
     48          1           0        1.691775   -0.593352   -2.395912
     49          1           0        3.223410   -2.643997    1.061747
     50          1           0        0.886530   -3.243724    1.737783
     51          1           0       -3.874016   -0.316658   -0.752956
 ---------------------------------------------------------------------

 SCF Done:  E(RB3LYP) =  -3775.53698380     A.U. after   18 cycles

 Excitation energies and oscillator strengths:

 Excited State   1:      Triplet-A      1.3945 eV  889.11 nm  f=0.0000  <S**2>=2.000
     113 ->117        -0.10951
     115 ->117         0.69611
     115 ->118        -0.13932
     115 ->119        -0.17434
     115 <-117         0.23085
 This state for optimization and/or second-order correction.
 Total Energy, E(TD-HF/TD-DFT) =  -3775.48573757
 Copying the excited state density for this state as the 1-particle RhoCI density.

 Excited State   2:      Triplet-A      2.1854 eV  567.33 nm  f=0.0000  <S**2>=2.000
     116 ->117         0.70242

 Excited State   3:      Singlet-A      2.1877 eV  566.74 nm  f=0.0013  <S**2>=0.000
     116 ->117         0.70576

 Excited State   4:      Triplet-A      2.7917 eV  444.11 nm  f=0.0000  <S**2>=2.000
     112 ->125        -0.11388
     116 ->118        -0.37110
     116 ->121         0.39984
     116 ->123        -0.43160

 Excited State   5:      Singlet-A      2.8245 eV  438.95 nm  f=0.0006  <S**2>=0.000
     116 ->118         0.69929

 Excited State   6:      Singlet-A      2.9268 eV  423.62 nm  f=0.0001  <S**2>=0.000
     116 ->119         0.69911

 The electronic state is 1-A.
 Alpha  occ. eigenvalues -- -482.80897 -61.78876 -56.33577 -56.33136 -56.33131
 Alpha  occ. eigenvalues --  -19.23157 -19.12983 -14.48066 -14.43978 -14.36551
 Alpha  occ. eigenvalues --  -10.31500 -10.28412 -10.28133 -10.25813 -10.24202
 Alpha  occ. eigenvalues --  -10.24054 -10.23906 -10.23872 -10.22360 -10.22001
 Alpha  occ. eigenvalues --  -10.21778 -10.21095 -10.20230 -10.19853 -10.19713
 Alpha  occ. eigenvalues --  -10.19509 -10.18916 -10.18552 -10.18138 -10.18110
 Alpha  occ. eigenvalues --  -10.17849 -10.17770 -10.17481  -8.56223  -6.53141
 Alpha  occ. eigenvalues --   -6.51685  -6.51655  -2.64755  -2.64320  -2.64315
 Alpha  occ. eigenvalues --   -2.63138  -2.63134  -1.17374  -1.05155  -1.01521
 Alpha  occ. eigenvalues --   -0.96426  -0.91750  -0.87335  -0.84826  -0.84301
 Alpha  occ. eigenvalues --   -0.81481  -0.80361  -0.78753  -0.78556  -0.77804
 Alpha  occ. eigenvalues --   -0.76120  -0.72239  -0.71926  -0.69499  -0.68889
 Alpha  occ. eigenvalues --   -0.68677  -0.67012  -0.64076  -0.63618  -0.62396
 Alpha  occ. eigenvalues --   -0.61811  -0.59025  -0.57202  -0.56153  -0.53410
 Alpha  occ. eigenvalues --   -0.52774  -0.51196  -0.50422  -0.49739  -0.48915
 Alpha  occ. eigenvalues --   -0.48648  -0.48307  -0.47582  -0.46644  -0.46065
 Alpha  occ. eigenvalues --   -0.45848  -0.44038  -0.43763  -0.43231  -0.42683
 Alpha  occ. eigenvalues --   -0.42385  -0.42054  -0.41896  -0.41476  -0.41276
 Alpha  occ. eigenvalues --   -0.41166  -0.40913  -0.40805  -0.39972  -0.39681
 Alpha  occ. eigenvalues --   -0.39199  -0.38434  -0.37301  -0.36876  -0.36797
 Alpha  occ. eigenvalues --   -0.36112  -0.35222  -0.34575  -0.34134  -0.33625
 Alpha  occ. eigenvalues --   -0.33482  -0.32348  -0.31678  -0.30094  -0.28180
 Alpha  occ. eigenvalues --   -0.26968  -0.26455  -0.24309  -0.23573  -0.22011
 Alpha  occ. eigenvalues --   -0.17523
 Alpha virt. eigenvalues --   -0.07682  -0.05081  -0.04723  -0.03063  -0.00821
 Alpha virt. eigenvalues --   -0.00103   0.01173   0.05181   0.06294   0.07009
 Alpha virt. eigenvalues --    0.07825   0.08664   0.10129   0.10335   0.10591

 Mulliken charges:
               1
     1  C   -0.481316
     2  C    0.124302
     3  C   -0.200756
     4  C    0.100637
     5  C   -0.468211
     6  C   -0.084721
     7  C   -0.020273
     8  C    0.122110
     9  N   -0.609608
    10  C   -0.247433
    11  C    0.135348
    12  C   -0.152685
    13  C   -0.308634
    14  C    0.093773
    15  C   -0.356749
    16  C    0.371897
    17  C    0.411560
    18  O   -0.426747
    19  O   -0.398565
    20  N    0.123308
    21  N   -0.646741
    22  C    0.230871
    23  C   -0.048618
    24  C   -0.122516
    25  C   -0.280892
    26  Br   0.151969
    27  C   -0.107761
    28  C   -0.054085
    29  C   -0.209426
    30  H    0.143749
    31  H    0.150151
    32  H    0.162558
    33  H    0.116542
    34  H    0.138461
    35  H    0.158300
    36  H    0.146047
    37  H    0.136442
    38  H    0.162058
    39  H    0.150476
    40  H    0.150669
    41  H    0.133633
    42  H    0.113900
    43  H    0.135865
    44  H    0.139371
    45  H    0.170267
    46  H    0.196468
    47  H    0.187803
    48  H    0.172530
    49  H    0.171377
    50  H    0.178883
    51  H    0.144410
 Sum of Mulliken charges =  -0.00000

 Dipole moment (field-independent basis, Debye):
    X=              7.0348    Y=              3.6079    Z=             -1.7544  Tot=              8.0983
 Quadrupole moment (field-independent basis, Debye-Ang):
   XX=           -199.5049   YY=           -196.6858   ZZ=           -174.5694
   XY=            -17.4338   XZ=             18.0427   YZ=              0.6150

 Normal termination of Gaussian 16 at Fri Jun 13 11:43:45 2025.
