 Gaussian 16, Revision C.02,
 Gaussian 16:  ES64L-G16RevC.02  7-Dec-2021

 ----------------------------------
 # td=(50-50,nstates=3) b3lyp/6-31g
 ----------------------------------

 ----------
 [No Title]
 ----------
 Symbolic Z-matrix:
 Charge =  0 Multiplicity = 1

                         Standard orientation:
 ---------------------------------------------------------------------
 Center     Atomic      Atomic             Coordinates (Angstroms)
 Number     Number       Type             X           Y           Z
 ---------------------------------------------------------------------
      1          6           0        5.115539   -3.624042    0.198135
      2          6           0        4.210892   -2.411743    0.148732
      3          6           0        3.458997   -2.029285    1.268382
      4          6           0        2.592381   -0.927356    1.236287
      5          6           0        2.479251   -0.171405    0.044543
      6          6           0       -0.629450    2.097824   -0.289429
      7          6           0       -0.054715    3.294235   -0.009426
      8          7           0        1.301991    3.410877    0.264421
      9          6           0        1.923829    4.721767    0.459634
     10          6           0        2.072836    2.252752    0.264315
     11          6           0        1.566871    1.017054   -0.007361
     12          6           0       -0.408307   -0.354263   -0.674337
     13          8           0       -2.684268   -0.463310    0.187699
     14          6           0       -4.054550   -0.658810    0.068952
     15          6           0       -4.720784   -0.930179   -1.136301
     16          6           0       -6.111809   -1.107898   -1.130987
     17          6           0       -6.841905   -1.018316    0.056582
     18          6           0       -6.167175   -0.747026    1.257374
     19          6           0       -4.785169   -0.568090    1.267265
     20          6           0        3.222039   -0.549033   -1.098460
     21          6           0        3.099579    0.221105   -2.397169
     22          6           0        4.077895   -1.658444   -1.024987
     23          1           0        5.566909   -3.747251    1.188882
     24          1           0        4.559428   -4.545883   -0.021541
     25          1           0        5.925016   -3.549666   -0.535887
     26          1           0        3.545074   -2.602305    2.188406
     27          1           0       -0.623176    4.215267    0.035706
     28          1           0        1.194415    5.412949    0.889592
     29          1           0        2.762140    4.633139    1.155852
     30          1           0        2.294171    5.144687   -0.483627
     31          1           0        3.119705    2.391635    0.507657
     32          1           0       -4.177177   -1.005599   -2.069688
     33          1           0       -6.620829   -1.318277   -2.067041
     34          1           0       -7.917898   -1.157865    0.051441
     35          1           0       -6.721862   -0.676092    2.188189
     36          1           0       -4.244355   -0.359366    2.183246
     37          1           0        2.051161    0.313559   -2.703518
     38          1           0        3.496950    1.239796   -2.308440
     39          1           0        3.646704   -0.282030   -3.200527
     40          1           0        4.648815   -1.940869   -1.906183
     41          6           0       -1.836070   -0.547049   -1.038783
     42          1           0       -1.993776   -1.530487   -1.496133
     43          1           0       -2.202799    0.219935   -1.736586
     44          6           0        1.786836   -0.564961    2.466048
     45          1           0        0.712681   -0.558881    2.246163
     46          1           0        1.965134   -1.281718    3.273529
     47          1           0        2.041485    0.434445    2.839283
     48          1           0       -1.701174    2.060863   -0.434296
     49          6           0        0.139239    0.856512   -0.345503
     50          1           0        0.215966   -1.239738   -0.638043
 ---------------------------------------------------------------------

 SCF Done:  E(RB3LYP) =  -1021.20216542     A.U. after   16 cycles

 Excitation energies and oscillator strengths:

 Excited State   1:      Triplet-A      2.3614 eV  525.05 nm  f=0.0000  <S**2>=2.000
      89 -> 90         0.70212
      89 <- 90         0.12126
 This state for optimization and/or second-order correction.
 Total Energy, E(TD-HF/TD-DFT) =  -1021.11538701
 Copying the excited state density for this state as the 1-particle RhoCI density.

 Excited State   2:      Triplet-A      2.8109 eV  441.09 nm  f=0.0000  <S**2>=2.000
      84 -> 90        -0.11205
      89 -> 91         0.67741
      89 -> 92         0.12772

 Excited State   3:      Triplet-A      3.6532 eV  339.38 nm  f=0.0000  <S**2>=2.000
      86 -> 94        -0.43005
      87 -> 91        -0.13739
      87 -> 92         0.53001

 Excited State   4:      Singlet-A      3.6703 eV  337.80 nm  f=0.0173  <S**2>=0.000
      89 -> 91         0.70013

 Excited State   5:      Singlet-A      3.9731 eV  312.06 nm  f=0.0002  <S**2>=0.000
      89 -> 92         0.70277

 Excited State   6:      Singlet-A      4.2614 eV  290.95 nm  f=0.0025  <S**2>=0.000
      89 -> 94         0.70608

 The electronic state is 1-A.
 Alpha  occ. eigenvalues --  -19.14576 -14.38800 -10.23753 -10.23048 -10.22932
 Alpha  occ. eigenvalues --  -10.22714 -10.22132 -10.19049 -10.19026 -10.18735
 Alpha  occ. eigenvalues --  -10.18645 -10.18580 -10.18147 -10.17914 -10.17628
 Alpha  occ. eigenvalues --  -10.17498 -10.17206 -10.17191 -10.16940 -10.16873
 Alpha  occ. eigenvalues --  -10.16794 -10.16788 -10.16776 -10.16301 -10.14691
 Alpha  occ. eigenvalues --   -1.02646  -0.98366  -0.86039  -0.83802  -0.82548
 Alpha  occ. eigenvalues --   -0.78907  -0.77239  -0.76355  -0.76126  -0.73609
 Alpha  occ. eigenvalues --   -0.72896  -0.70337  -0.69374  -0.68026  -0.67092
 Alpha  occ. eigenvalues --   -0.65350  -0.62817  -0.59974  -0.58226  -0.56710
 Alpha  occ. eigenvalues --   -0.56679  -0.55885  -0.52663  -0.51648  -0.50701
 Alpha  occ. eigenvalues --   -0.48465  -0.47817  -0.47187  -0.47077  -0.46594
 Alpha  occ. eigenvalues --   -0.45393  -0.44813  -0.43399  -0.43098  -0.42316
 Alpha  occ. eigenvalues --   -0.41983  -0.41630  -0.41154  -0.40704  -0.40533
 Alpha  occ. eigenvalues --   -0.40158  -0.39629  -0.39114  -0.39013  -0.38601
 Alpha  occ. eigenvalues --   -0.37948  -0.37554  -0.35873  -0.35707  -0.35235
 Alpha  occ. eigenvalues --   -0.34694  -0.33734  -0.32835  -0.32297  -0.31737
 Alpha  occ. eigenvalues --   -0.30042  -0.29889  -0.28980  -0.26616  -0.23830
 Alpha  occ. eigenvalues --   -0.22773  -0.22448  -0.20215  -0.16494
 Alpha virt. eigenvalues --   -0.00428   0.00045   0.00804   0.01411   0.01631
 Alpha virt. eigenvalues --    0.02825   0.07815   0.10251   0.10722   0.10923
 Alpha virt. eigenvalues --    0.11364   0.11695   0.12758   0.12890   0.13377

 Mulliken charges:
               1
     1  C   -0.482766
     2  C    0.143889
     3  C   -0.214661
     4  C    0.134060
     5  C   -0.114259
     6  C   -0.201108
     7  C    0.131378
     8  N   -0.600947
     9  C   -0.245363
    10  C    0.112994
    11  C   -0.083225
    12  C   -0.220608
    13  O   -0.562000
    14  C    0.283594
    15  C   -0.138174
    16  C   -0.140498
    17  C   -0.124188
    18  C   -0.132104
    19  C   -0.129106
    20  C    0.132055
    21  C   -0.471587
    22  C   -0.215670
    23  H    0.144403
    24  H    0.155982
    25  H    0.142315
    26  H    0.113144
    27  H    0.148477
    28  H    0.162946
    29  H    0.164310
    30  H    0.166111
    31  H    0.158154
    32  H    0.127329
    33  H    0.119346
    34  H    0.115824
    35  H    0.119583
    36  H    0.132722
    37  H    0.161839
    38  H    0.143023
    39  H    0.135786
    40  H    0.111614
    41  C   -0.093783
    42  H    0.137668
    43  H    0.132100
    44  C   -0.475628
    45  H    0.176830
    46  H    0.134554
    47  H    0.143467
    48  H    0.147148
    49  C    0.186050
    50  H    0.126979
 Sum of Mulliken charges =  -0.00000

 Dipole moment (field-independent basis, Debye):
    X=              2.9322    Y=              3.8450    Z=             -0.4586  Tot=              4.8572
 Quadrupole moment (field-independent basis, Debye-Ang):
   XX=           -145.2813   YY=           -126.7574   ZZ=           -143.0976
   XY=              3.1937   XZ=              2.8329   YZ=              3.2194

 1\1\GINC-N2\SP\RB3LYP TD-FC\6-31G\C23H25N1O1\HPCMGAC13\13-Jun-2025\0\\
 # td=(50-50,nstates=3) b3lyp/6-31g\\[No Title]\\0,1\C,0,5.115539,-3.62
 4042,0.198135\C,0,4.210892,-2.411743,0.148732\C,0,3.458997,-2.029285,1
 .268382\C,0,2.592381,-0.927356,1.236287\C,0,2.479251,-0.171405,0.04454
 3\C,0,-0.62945,2.097824,-0.289429\C,0,-0.054715,3.294235,-0.009426\N,0
 ,1.301991,3.410877,0.264421\C,0,1.923829,4.721767,0.459634\C,0,2.07283
 6,2.252752,0.264315\C,0,1.566871,1.017054,-0.007361\C,0,-0.408307,-0.3
 54263,-0.674337\O,0,-2.684268,-0.46331,0.187699\C,0,-4.05455,-0.65881,

 Normal termination of Gaussian 16 at Fri Jun 13 11:43:43 2025.
